121
 energy: -174.067829453779 gnorm: 0.000196921862 xtb: 6.6.0 (83090be673e2468c27fcd74d519548d8d51bd8df)
K            0.75346724168584        0.47498828979641        0.40037787927768
C           -3.74409585856443        2.62309605450746        0.91791271382335
C           -2.42580852275640        2.10325595760050        1.04327074327922
N           -1.36831596715919        1.67522182284615        1.13953021116477
H           -3.76672767483190        3.66025171909918        1.24659033131108
H           -4.42354628088231        2.02732040028033        1.52998320606499
H           -4.04377797381858        2.55969611915442       -0.12653245483462
C            0.86619174434276        5.08463370441107       -1.27580134515701
C            0.97499347834435        3.66820305217956       -1.23441393756344
N            1.05988308393262        2.52629509556081       -1.20166261603200
H            1.63547435767124        5.49593070414752       -1.92681364018165
H            0.99598065490348        5.46661244470514       -0.26351872600092
H           -0.11864367032300        5.36302869454604       -1.65250879605086
C           -0.67935973245312        0.43732127933463       -3.13068994590342
C           -1.88712028238922        0.67218283885998       -2.41552917316150
N           -2.86827499759489        0.85701688397170       -1.85176364244301
H           -0.87855558264507        0.51133385040001       -4.20086089169239
H           -0.29651500357455       -0.55609705240648       -2.89879130370303
H            0.05581595131305        1.18510019009410       -2.83915637300358
C            1.74904047608820        2.32168977633708        3.00233137828154
C            1.65832333358846        3.60132246522296        2.38167331132174
N            1.59517053841666        4.63855092064283        1.89686240959370
H            2.44935027001508        1.70095874982035        2.44702561251124
H            0.76857611681311        1.84903424987810        3.01088835294065
H            2.10246046602705        2.43728378291228        4.02835913809821
C            2.78574620998159       -3.32623328078351       -2.21950992809685
C            1.95298458624516       -2.37037880097640       -1.57682034082256
N            1.27260250011721       -1.59604413186826       -1.07697047679142
H            2.33553005101318       -3.58249970957341       -3.17857780937081
H            2.86973211917231       -4.21844015488486       -1.60201637000001
H            3.77792526298694       -2.90139532792686       -2.37800455745902
C            0.57213688208077       -2.60662602973159        4.72450228549823
C            0.53710550100421       -1.78219302074135        3.56183886266703
N            0.50951609013111       -1.11971939576750        2.62843945982437
H            1.45246276598784       -3.24669462831835        4.69143204553325
H           -0.32271177775544       -3.23018259876851        4.75704657689311
H            0.60934328595235       -1.98097225721584        5.61508364896928
C            4.16086881572398        0.67438405588144       -1.96509889727197
C            3.72881074831606        0.63448728626635       -0.61381366929360
N            3.40823961069987        0.60698510697647        0.48605626086916
H            4.77775315047721        1.56175217493748       -2.11095606390889
H            3.29736696404107        0.71781470284811       -2.62480412542995
H            4.74816910421650       -0.21698270974786       -2.18807713385543
C            6.26053180209455       -6.43208900558592        1.08030956028821
C            7.00691144207201       -6.17515519638076       -0.10902395485911
N            7.60307372078696       -5.96249694040893       -1.06451223139654
H            6.89154193203600       -6.94730064300971        1.80306534233954
H            5.39660798205941       -7.05113654250837        0.84302041278104
H            5.92578325378594       -5.48197350671530        1.50077170610667
C           -6.04411204286906        0.56085733598560       -2.59807489093150
C           -6.31120455426011        1.54125825530394       -3.60459330033965
N           -6.52033279140465        2.32926501258723       -4.40960557044873
H           -6.21365885440582       -0.43496768747525       -3.00468887306299
H           -6.70107433378084        0.72282513809504       -1.74485921608047
H           -5.00325467833539        0.64823675949308       -2.28052162805741
C           -4.28509506097272        7.11474435983418       -3.09341821974134
C           -3.06028371764754        6.43127609542977       -2.81405737992687
N           -2.07727283999784        5.88820280952754       -2.59044684821404
H           -4.11092306923956        7.87546481172989       -3.85371590644956
H           -4.65082466505646        7.58940277022296       -2.18350761763894
H           -5.02644864790147        6.40285852731988       -3.45446308530378
C           -1.84434041333418       -2.63098433678348       -5.56832883650440
C           -0.61931148400512       -2.92571859415823       -4.89545846104458
N            0.36280190311593       -3.15404473264853       -4.35165722048032
H           -1.87298407209420       -1.56923457276870       -5.81652211907931
H           -2.68344098795590       -2.87668139485553       -4.91862254563539
H           -1.90805494286653       -3.21806436284858       -6.48349517880613
C            7.95045267268002       -3.44976164782050       -3.10525417963748
C            6.78757025099700       -2.67816345152982       -2.81759700579766
N            5.84804165394199       -2.06439810621325       -2.58358419102585
H            7.94868311176390       -3.73632959608970       -4.15597561194013
H            7.94188557484622       -4.34755608457750       -2.48305282899010
H            8.84308169526047       -2.86552791222828       -2.88648234212999
C           -2.03512906454240       -1.92209354349434        0.22041102980930
C           -2.93999768759688       -2.96238376305608       -0.15513688018247
N           -3.66779103350483       -3.79233031959016       -0.46299781184982
H           -2.39133770466943       -0.97235365254661       -0.17565493931070
H           -1.04525892266242       -2.13457204256121       -0.18021680308267
H           -1.97539050200463       -1.85656200503049        1.30450316113504
C           -2.60155537902614        2.80971781539474       -7.43245111069417
C           -2.17412297663677        1.61486740174319       -6.77760947083192
N           -1.82652564353120        0.65825954237763       -6.25191236657985
H           -2.63769370112266        3.62246900316559       -6.70772767331355
H           -3.59452521903458        2.65706284384451       -7.85377411354427
H           -1.90132557430524        3.05931834902808       -8.22885627164176
C            6.52127183467646        5.54794545479658       -0.32972003240369
C            6.14585398980285        4.40833438306233       -1.10889391728871
N            5.84297250754475        3.49749506445404       -1.73300212196300
H            7.42923085082594        5.32284601099972        0.22854176100464
H            5.71786649945254        5.78997905344163        0.36515710719347
H            6.70177005113156        6.39643541346247       -0.98874987538520
C           -8.47249301011089       -4.76193262569936        0.40732702903900
C           -8.11797835227402       -4.09667404857817        1.62246711008460
N           -7.83396136222842       -3.56479595381461        2.59598831575122
H           -7.84544363829668       -5.64355658052843        0.28021516143855
H           -8.31655816082547       -4.08572389624548       -0.43227923233011
H           -9.51939796920497       -5.06058482436085        0.44697562306055
C            2.81560274873937        4.01326281426410        8.27340102851331
C            2.73711119493003        3.20060973371490        7.09863229643490
N            2.67231725535912        2.55120165812787        6.15793683236377
H            2.89654226566037        3.37609157073483        9.15333314610738
H            1.91788264493327        4.62588352273505        8.34948940299584
H            3.69092448278498        4.65882918633123        8.21070651564697
C            5.51697014858313       -0.95372463189310        2.66299415216811
C            5.45901539468047       -2.35911814287868        2.41614573564174
N            5.41321062595168       -3.48794077691803        2.22570445889285
H            4.83857686954544       -0.43938250432680        1.98076124406104
H            6.53366908350246       -0.59933151114339        2.49876160863100
H            5.22167945643291       -0.75188602536666        3.69176435736283
C           -3.89981513522997       -6.30425322175719        4.31183789499061
C           -2.86644575364193       -5.34828064746127        4.56103237080922
N           -2.03908840018030       -4.58272881015845        4.76218053000073
H           -4.16682160164889       -6.27824055068589        3.25604195939482
H           -4.77443433050559       -6.06066625188471        4.91381353818035
H           -3.54400734951042       -7.30019064725384        4.57342567945518
C           -6.47650217748836       -1.12730840379992        4.36982913076674
C           -5.97112464381864       -0.14135348375753        3.46989055008755
N           -5.56382377297182        0.65144939114003        2.74993701250314
H           -5.66000496458311       -1.51777581045719        4.97569129476872
H           -6.92686176182323       -1.94060084453543        3.79879278929510
H           -7.22996347862642       -0.67922883727218        5.01625280999169
