121
 energy: -174.141864010605 gnorm: 0.000176578530 xtb: 6.6.0 (83090be673e2468c27fcd74d519548d8d51bd8df)
Li          -1.06776900782588       -2.87714498574985       -2.05768813380813
C            3.20674740451009       -1.51615393346081       -1.56607771395257
C            1.79934471839023       -1.71823245394023       -1.62633298333643
N            0.66667520207886       -1.87659130294810       -1.66712484444699
H            3.57040815887264       -1.18163614578535       -2.53619376165697
H            3.68687190292916       -2.46181222029580       -1.30282832602308
H            3.44114838663841       -0.77073053046757       -0.80790952379871
C           -0.93589505872303       -2.58357815604357       -6.64103299643400
C           -1.00622201815202       -2.80111471119688       -5.23656638786235
N           -1.06312852928290       -2.97617266434389       -4.10704534947398
H           -0.02486710537488       -2.02774571387789       -6.87428811028052
H           -1.80142008809448       -2.00721422403264       -6.96480667419547
H           -0.91788851213695       -3.53970517583098       -7.16180648508331
C           -5.47322426823344       -2.13461334632790       -1.43225603574449
C           -4.05240798734875       -2.13350278026702       -1.50831908971047
N           -2.90936447861414       -2.11992967836455       -1.56789342442630
H           -5.86333719250706       -3.02170756161069       -1.92843873927434
H           -5.86307059436271       -1.24367674726187       -1.93086225104202
H           -5.78737169209432       -2.13290367654147       -0.38991148936951
C           -1.15600207979437       -6.63800397865276        0.56466001396193
C           -1.07742417938846       -5.53561090460631       -0.32994640068452
N           -1.01068093816723       -4.64732103574897       -1.04885343863490
H           -0.18899547956259       -6.79178580699593        1.04525094350413
H           -1.44041621547802       -7.53707709469404        0.02078727361136
H           -1.90311940783042       -6.42294126747743        1.33103899267547
C            3.73532446778071       -6.87554247068244       -0.21035015841093
C            4.05034368657700       -5.50792504660960       -0.47352776006456
N            4.30191575602660       -4.41076111723963       -0.68684822405385
H            3.06706673873240       -6.93347325481284        0.64996323249135
H            4.64961309133442       -7.42782596975862        0.00301939781568
H            3.24373532144837       -7.30672541365127       -1.08138621452250
C           -4.87729582005142       -4.86557217901157        4.66260272673739
C           -3.95873619781667       -5.39224621279218        3.70257536511818
N           -3.22529107352521       -5.81895340817323        2.93355449813132
H           -4.36139978684500       -4.15309589519035        5.30507290065899
H           -5.27915408384003       -5.67804773120226        5.26704761082060
H           -5.69148201982170       -4.35924376844656        4.14582648154614
C            1.93223546939491        4.29084891608404        0.03311944936952
C            3.12623251781306        3.97387346421352       -0.68395382777481
N            4.08237764768702        3.72197887277314       -1.26340077190727
H            2.18716017550280        4.59669381922700        1.04835608003305
H            1.28193221994107        3.41822939771659        0.06970403046356
H            1.42521247481018        5.10913420522834       -0.47750762597374
C            0.36085129037316       -1.80183266090559        3.37583561720895
C            0.04987966276237       -2.21457399572773        4.70798757622934
N           -0.19080731390208       -2.54820726760692        5.77789913631972
H            1.12207105095582       -1.02155541352837        3.41059634894223
H           -0.53588059341377       -1.41747672318614        2.89234143297746
H            0.74051094592699       -2.65200692972813        2.81174654813731
C           -1.76262347457863        2.60652072844294        6.56805176530001
C           -1.88051498326554        3.08489427559093        5.22762857722384
N           -1.98507159795925        3.46985662361592        4.15333054031034
H           -2.37658445122574        3.21778839685897        7.22827881784687
H           -0.72106642909594        2.65895421042042        6.88890213998470
H           -2.10002199848482        1.57166341886418        6.61191107750827
C            7.66951519005448        1.55327587607649       -3.96064914431916
C            6.65500000480983        1.38980448680414       -4.95497922400169
N            5.84265543021019        1.25561157252060       -5.75084963138965
H            8.60047996102093        1.11407516352508       -4.31752326884269
H            7.36039043859782        1.05607905089810       -3.04209237885799
H            7.81924410611173        2.61423947351126       -3.76466703470746
C            2.41107774701769        0.34070582264065        8.89126196898126
C            1.80310291777436        1.50484119372158        8.32521833707609
N            1.31863868216186        2.43920151144346        7.87325661256021
H            1.63793738803449       -0.30121592665205        9.31189300783927
H            3.10610858543666        0.63688916126256        9.67611024625130
H            2.94556927954579       -0.20255199940757        8.11294272889185
C            1.63885675698763        6.94272325557627        4.87668808343263
C            2.22431262147204        6.00429314569817        3.97245739955919
N            2.69476444360613        5.25435930719018        3.24545393777908
H            0.61948316043936        7.16190666655391        4.56130988624096
H            2.22562889716901        7.86072008701782        4.87877809472248
H            1.62338910194855        6.51716024883394        5.87947381681916
C            3.88771402803799        6.10302556895888       -3.76999963453864
C            2.68073134784863        6.44931933300670       -3.08485815361407
N            1.71613139632274        6.71466293901893       -2.52713839704802
H            4.34296811372425        5.25396555530654       -3.25981390756887
H            4.57196920699703        6.95007275719037       -3.75531084484469
H            3.66061575357830        5.83317049088049       -4.80030098489772
C            1.50485321856407       -7.23335700137339        4.99355545940635
C            1.60788325677834       -7.15179602316220        3.57129934076989
N            1.68867051293310       -7.08690134588391        2.43044574067267
H            2.15530443464880       -6.48740662272598        5.44886379353032
H            1.80229094146501       -8.22803789756163        5.32395542985098
H            0.47441725761334       -7.04319673542462        5.29182367491322
C           -4.23541821545251        2.07699181737473        2.08212727731344
C           -4.62171972699154        0.92187394629650        2.83180793866863
N           -4.92542216887263       -0.00317162051703        3.43558142059093
H           -5.10210978466825        2.71852014708361        1.92973751530364
H           -3.83738980680624        1.76984596758413        1.11632117012115
H           -3.47044426704679        2.62220812771818        2.63763028610812
C            3.80752155196004        0.35617497912214       -8.20049123352696
C            2.66346531870362       -0.34147681475120       -7.70939550969779
N            1.74441944763627       -0.90281728438738       -7.31790733856888
H            4.43612599902124        0.66231911355949       -7.36319652834839
H            3.48641417887247        1.23751659554214       -8.75415565217563
H            4.37715829505395       -0.29868448046427       -8.85866150191326
C           -2.93374546497148        7.18813461881691        0.07434640190334
C           -3.61093758834512        6.29384708579436       -0.81712668426126
N           -4.15073320446945        5.57422531238937       -1.52527724586374
H           -2.49675603999496        6.61833356252119        0.89333217576161
H           -3.64467930248182        7.91135275040390        0.47202236684033
H           -2.14696618079166        7.71200064201253       -0.46680778855592
C           -6.45053773929163        2.27952867102290       -4.83839330261858
C           -6.47129486411025        1.26850259691971       -3.83175706249648
N           -6.47937843761354        0.45292531303258       -3.02699260958353
H           -6.71750509728092        3.23950286454475       -4.39899040653644
H           -7.15848688483306        2.02698141757026       -5.62645077716588
H           -5.44390759510302        2.33968500728121       -5.25700849079268
C           -1.28168199273828        2.35370207878299       -4.03844004584808
C           -2.37057424645725        2.28570844956056       -4.96312249244325
N           -3.24341951806173        2.23277427125106       -5.70286242457176
H           -1.62410101095867        2.02417792518417       -3.05857215082111
H           -0.92844936453268        3.38215596911073       -3.97369772112428
H           -0.47296639133041        1.70822793938088       -4.37751992566789
C            4.42791983899764        2.44107471888872        3.71713713968801
C            3.54078976887976        1.32594153948428        3.61451403020296
N            2.82917255990363        0.43237705875848        3.52956988127428
H            5.23269796600318        2.33618558277614        2.99095996438139
H            4.84514521618956        2.48512282876044        4.72221023281049
H            3.87496651437451        3.35997770735338        3.51552582110123
