121
 energy: -174.084867784863 gnorm: 0.000125425159 xtb: 6.6.0 (83090be673e2468c27fcd74d519548d8d51bd8df)
Na          -0.31837382799573        2.23282455707277        0.36055229468200
C           -3.00889428756209        3.04305333030083        3.54633048799281
C           -3.34512594402732        4.42987775108865        3.60099405613289
N           -3.61183264958986        5.54380072246652        3.63890147865115
H           -2.31842457292130        2.87811671991918        2.71878571020883
H           -3.91215690115539        2.45229482424731        3.39754184580793
H           -2.53555707402014        2.74783319766902        4.48150345548966
C           -1.83358737035571        6.90011698086490        1.12348254013414
C           -1.30480229547527        5.59567309247371        0.91275630871853
N           -0.89046964098477        4.54106678543533        0.74830738149454
H           -2.37941095852926        7.22042119133529        0.23514622244499
H           -1.02473812735966        7.59987754818065        1.32527582888744
H           -2.51360522827281        6.87063375238016        1.97553511640111
C            0.46917392258153       -2.28533829879455       -1.59744552293308
C            0.12645470571431       -1.04591827808252       -0.98213561344557
N           -0.16012466909927       -0.04353329401395       -0.51097675699944
H           -0.27126930200231       -3.04256966840877       -1.34344830670357
H            1.45128068198319       -2.60827719772244       -1.25674842123847
H            0.49113486733724       -2.14698081093450       -2.67994119810509
C            2.40983185184225        0.92625488032197        3.99843155560247
C            1.27051259133581        1.31654659474220        3.24098400296280
N            0.34617985925304        1.61793872232556        2.63588996020424
H            2.71513021915800       -0.07428295778824        3.68766667428630
H            2.15931273458743        0.91134881966870        5.05829815558337
H            3.22194765778571        1.63302790639056        3.82986224267076
C            2.08813260306048       -2.50895011892568       -6.46093793539847
C            1.25444146787774       -1.82849209121925       -5.52972331357027
N            0.58922316772337       -1.28312111025768       -4.77076219460262
H            2.62368536450581       -1.78116225123444       -7.06938820547621
H            1.48063623425587       -3.14675886228274       -7.10161602239531
H            2.80709324099647       -3.12140037531627       -5.91288345919663
C            5.55867636866575       -2.11500804273543        1.57936804962712
C            5.64501214112230       -3.14293102608001        0.59515331702497
N            5.72015303435121       -3.95848106551387       -0.20735602611171
H            6.31557163418205       -2.27889114200182        2.34498171778163
H            4.56918142232057       -2.13013268356417        2.03907029293174
H            5.72777189202588       -1.15097947820481        1.09810977013818
C           -5.19402846357771        2.66671348803862        0.17045350624756
C           -3.81289967099285        2.39393146375874       -0.05478542485760
N           -2.70467715395221        2.16507850950036       -0.22272542425812
H           -5.49136953488834        2.21380979056934        1.11775944238384
H           -5.79135193134079        2.24019440616682       -0.63401609074955
H           -5.35444436405928        3.74259748316728        0.21578250703660
C            4.45926407102726        2.86908121131583        0.63011258621032
C            3.10993122986397        2.66797856657059        0.22642264656181
N            2.02511008384238        2.50740331468604       -0.10280157904232
H            5.05836772247568        1.99943658164305        0.35641505468061
H            4.49947226026325        3.01426882836557        1.71002950861286
H            4.86055421161336        3.75062120108630        0.13231864430147
C            1.55081437170020        1.74544493797646       -3.59839956299178
C            2.85716802838589        1.92589773488149       -4.15101236555810
N            3.90040426327165        2.06485649542338       -4.60409735527132
H            1.60021028501819        1.80022508077610       -2.51043191375640
H            1.17188532725445        0.76815182632310       -3.89805656919184
H            0.89101517998922        2.52580376436586       -3.97436560172650
C           -6.48624056973144       -3.03145173907175       -2.31252872981112
C           -6.74871499281879       -2.74443490813090       -0.94038889350273
N           -6.96016292348879       -2.51114562650686        0.16189573087443
H           -5.73390603659426       -2.33603952347962       -2.68964685109921
H           -7.40321055899708       -2.92199779754528       -2.88996779245370
H           -6.11426516617700       -4.05051302889150       -2.40879729717967
C           -3.81236322492090       -6.90557393117855        1.52512037231288
C           -3.29378723321278       -6.85575471334271        0.19099764541432
N           -2.88033301003548       -6.81547702083137       -0.87606547422326
H           -2.98564270672123       -6.91467463653140        2.23417347209346
H           -4.41018272374505       -7.80759457301846        1.64995041880002
H           -4.43356781688183       -6.02913120979768        1.70461653175128
C           -7.21956142248289       -1.09738033596348        3.08754173843825
C           -6.29052030093576       -0.02159336865176        3.00831751912821
N           -5.53261820962097        0.83609728559359        2.93169378889474
H           -7.21593335523778       -1.63519739009908        2.13688259539322
H           -8.21822679580530       -0.70954127117193        3.28338906445502
H           -6.92639451837728       -1.77482962783291        3.88852385746641
C           -2.41236480419467       -0.43244668160202        2.17696586595570
C           -2.16035689345859       -1.66404775440976        2.85036545416793
N           -1.95266641928513       -2.65178158824231        3.39391960878433
H           -1.61363753025048        0.27146090925800        2.40711066596081
H           -3.37052935013608       -0.02587700267705        2.49805972561875
H           -2.43285093527882       -0.60054674953402        1.10205693952315
C            2.04963458186362       -7.89100360550625       -0.72512942989062
C            1.78432828746216       -7.07364184910014        0.41796147403413
N            1.56647310088399       -6.41966190098829        1.33209056889501
H            1.97594296164871       -7.28491494626002       -1.62716302526891
H            1.31744778654953       -8.69640805548838       -0.77072636086457
H            3.05120742260880       -8.31170481144721       -0.64599389893805
C            7.85119141136302       -0.01079347670137       -2.54366991791815
C            7.06126213126403        0.24487596097623       -1.38152530388488
N            6.42759299130219        0.44795533501101       -0.44922722936359
H            8.74371347723423       -0.56892913294070       -2.26290765574748
H            8.13963547545575        0.93506916860374       -3.00089586446588
H            7.26531583061586       -0.59063602652000       -3.25582074434664
C            5.52815612327838        5.18421267264424        5.57616578265284
C            4.99841255751446        4.24755613814410        4.63660455959385
N            4.57367790141623        3.49565512625467        3.88438341243325
H            6.07552472181738        5.96235330520208        5.04516347364483
H            6.20184257966228        4.67037590743201        6.26123128839868
H            4.71172082998952        5.63522352390214        6.13929090343333
C           -2.06146707067938        0.43205801466199       -3.57704557667643
C           -3.23856021788146       -0.36873669124872       -3.48236181895666
N           -4.18411941695934       -1.01127535616845       -3.40182776926276
H           -1.76815172357158        0.76395574217765       -2.58028540723728
H           -2.26309202630600        1.29651468912083       -4.20774287102481
H           -1.25897290528062       -0.16044420190584       -4.01643031207388
C            0.99557001143760       -4.15769474384345        3.66031385808159
C            1.92454174022191       -3.11024677833207        3.40643479356359
N            2.66970001791472       -2.26296573004179        3.19857960367754
H            1.16547139343413       -4.56554303168603        4.65557124980646
H            1.12915177388031       -4.94381649843499        2.91639823485343
H           -0.01932303018399       -3.76065929264638        3.59607758871719
C            6.06849455635671       -5.24719501777212       -3.19572028808299
C            5.05018031091713       -4.69191473422092       -4.02730913388534
N            4.23085471321967       -4.24360054717180       -4.69146005482747
H            5.95377917036619       -4.86229145428625       -2.18028549325791
H            7.04767362521850       -4.96681470970395       -3.58164524647857
H            5.98170216295376       -6.33266542499750       -3.18585622373631
C           -4.95666805165991        9.35829900451287       -3.10376345890000
C           -4.17336599660081        8.55739862419608       -2.21420775417474
N           -3.54802401353332        7.91598800954065       -1.50131349327381
H           -5.98620172527410        9.39351894623642       -2.74911719977676
H           -4.93062346177202        8.92490118997542       -4.10291647634686
H           -4.54978192621511       10.36843336912687       -3.13567149526437
