61
 energy: -87.033799599559 gnorm: 0.000054314065 xtb: 6.6.0 (83090be673e2468c27fcd74d519548d8d51bd8df)
Na          -0.63451230251231       -1.74563885941239        2.40758504996511
C           -3.18765566651003       -2.54386296093987        6.78779985294782
C           -2.48228626936493       -2.33746525071346        5.56073195292579
N           -1.91806014948976       -2.17065490182781        4.58048313180816
H           -4.16177325742224       -2.98421575756727        6.57898326417963
H           -3.32304177561188       -1.58920886367091        7.29461156587919
H           -2.61692478943529       -3.21507291663753        7.42821485483104
C            2.03098389719052       -5.96424924787262        3.56997860523358
C            1.29724075343601       -4.77121897299061        3.27896153139217
N            0.71079781220088       -3.81782922782319        3.04657112785452
H            2.70136709809627       -5.78429335803604        4.40941160877323
H            2.61408286609066       -6.25495234186732        2.69718231451012
H            1.33815606424596       -6.76504106633935        3.82499539446861
C           -3.57915159076161        2.37834033259414        2.46285551103805
C           -2.73219641189196        1.23259709963613        2.38624637976210
N           -2.05630178830357        0.31122366419984        2.32596556909289
H           -3.44655643439902        2.99475034157836        1.57253865783347
H           -3.32274607162004        2.96417471474202        3.34416762830030
H           -4.61863130462237        2.06060512795113        2.52738227254483
C           -1.92672541956513       -3.69425275496710       -2.07561157561002
C           -1.63743610501036       -3.21655669330913       -0.76207744818887
N           -1.40773510323339       -2.82799137754186        0.28929681258659
H           -2.98620526680342       -3.55995676715705       -2.28875467173184
H           -1.67384147031339       -4.75104505015621       -2.14603609049587
H           -1.33757796937498       -3.13337347786444       -2.80366260577202
C           -1.41288094610955        0.79119782906504       -2.94268326580173
C           -1.10548615858221        1.88969789041892       -3.80101603133086
N           -0.85941425688158        2.77512652031596       -4.48587183492591
H           -2.49229980584725        0.71792967694343       -2.81903581379467
H           -0.94594091305818        0.94802208342080       -1.97135664879117
H           -1.03193283504268       -0.13069319149502       -3.38509852953831
C            3.61599447398359        0.24364965224465        0.60725473322568
C            2.41606468122117       -0.22965457473089        1.21604903043363
N            1.45277251302348       -0.61376171550231        1.69992660606549
H            4.31695307655426       -0.58173491337411        0.49326774606651
H            4.06734859086471        1.01386372433078        1.23461870409699
H            3.38868289136865        0.66464660783195       -0.37090892494660
C            1.50503497508693       -2.21709236894329       -6.28726496837134
C            0.58096496248385       -2.12318574390613       -5.20670786052740
N           -0.16086346869503       -2.04819297626113       -4.33557970268189
H            1.03540877633397       -2.72628158640396       -7.12779952129420
H            2.38586002911485       -2.77270268961694       -5.96848851356855
H            1.80137445637655       -1.21162486213448       -6.59360989210131
C            6.32063084471002        4.26289421472165        3.86640994742521
C            5.65581510963818        3.30062471729553        3.04313252141024
N            5.12358791700355        2.53019946963869        2.38445509955641
H            7.33762946690147        4.40984471148956        3.50435407647687
H            6.34959941957337        3.90281507775579        4.89423265743128
H            5.78124497428160        5.20860666071196        3.82776737461738
C           -3.22639899967559        6.29478701215389       -1.85943696546130
C           -3.29420525585563        5.26194939716045       -0.87288318518159
N           -3.34722492874383        4.43388069840530       -0.08392329107528
H           -2.18298363626292        6.51034572738049       -2.08663136216375
H           -3.71025978683262        7.19386531546979       -1.47941332083746
H           -3.73220173210088        5.96422759156913       -2.76597428162817
C            1.27077730344017        3.27813767725454       -6.92142135064893
C            1.77266037046581        1.94416248182556       -7.00204990604381
N            2.16935127302403        0.87057548919953       -7.05795191326338
H            2.08204712112657        3.96028158491847       -6.67179582306424
H            0.50671337296397        3.31594733567884       -6.14239980106661
H            0.83299341434413        3.56312328903741       -7.87688576609925
