
                                 *****************
                                 * O   R   C   A *
                                 *****************

                                            #,                                       
                                            ###                                      
                                            ####                                     
                                            #####                                    
                                            ######                                   
                                           ########,                                 
                                     ,,################,,,,,                         
                               ,,#################################,,                 
                          ,,##########################################,,             
                       ,#########################################, ''#####,          
                    ,#############################################,,   '####,        
                  ,##################################################,,,,####,       
                ,###########''''           ''''###############################       
              ,#####''   ,,,,##########,,,,          '''####'''          '####       
            ,##' ,,,,###########################,,,                        '##       
           ' ,,###''''                  '''############,,,                           
         ,,##''                                '''############,,,,        ,,,,,,###''
      ,#''                                            '''#######################'''  
     '                                                          ''''####''''         
             ,#######,   #######,   ,#######,      ##                                
            ,#'     '#,  ##    ##  ,#'     '#,    #''#        ######   ,####,        
            ##       ##  ##   ,#'  ##            #'  '#       #        #'  '#        
            ##       ##  #######   ##           ,######,      #####,   #    #        
            '#,     ,#'  ##    ##  '#,     ,#' ,#      #,         ##   #,  ,#        
             '#######'   ##     ##  '#######'  #'      '#     #####' # '####'        



                  #######################################################
                  #                        -***-                        #
                  #          Department of theory and spectroscopy      #
                  #    Directorship and core code : Frank Neese         #
                  #        Max Planck Institute fuer Kohlenforschung    #
                  #                Kaiser Wilhelm Platz 1               #
                  #                 D-45470 Muelheim/Ruhr               #
                  #                      Germany                        #
                  #                                                     #
                  #                  All rights reserved                #
                  #                        -***-                        #
                  #######################################################


                         Program Version 5.0.4 -  RELEASE  -


 With contributions from (in alphabetic order):
   Daniel Aravena         : Magnetic Suceptibility
   Michael Atanasov       : Ab Initio Ligand Field Theory (pilot matlab implementation)
   Alexander A. Auer      : GIAO ZORA, VPT2 properties, NMR spectrum
   Ute Becker             : Parallelization
   Giovanni Bistoni       : ED, misc. LED, open-shell LED, HFLD
   Martin Brehm           : Molecular dynamics
   Dmytro Bykov           : SCF Hessian
   Vijay G. Chilkuri      : MRCI spin determinant printing, contributions to CSF-ICE
   Dipayan Datta          : RHF DLPNO-CCSD density
   Achintya Kumar Dutta   : EOM-CC, STEOM-CC
   Dmitry Ganyushin       : Spin-Orbit,Spin-Spin,Magnetic field MRCI
   Miquel Garcia          : C-PCM and meta-GGA Hessian, CC/C-PCM, Gaussian charge scheme
   Yang Guo               : DLPNO-NEVPT2, F12-NEVPT2, CIM, IAO-localization
   Andreas Hansen         : Spin unrestricted coupled pair/coupled cluster methods
   Benjamin Helmich-Paris : MC-RPA, TRAH-SCF, COSX integrals
   Lee Huntington         : MR-EOM, pCC
   Robert Izsak           : Overlap fitted RIJCOSX, COSX-SCS-MP3, EOM
   Marcus Kettner         : VPT2
   Christian Kollmar      : KDIIS, OOCD, Brueckner-CCSD(T), CCSD density, CASPT2, CASPT2-K
   Simone Kossmann        : Meta GGA functionals, TD-DFT gradient, OOMP2, MP2 Hessian
   Martin Krupicka        : Initial AUTO-CI
   Lucas Lang             : DCDCAS
   Marvin Lechner         : AUTO-CI (C++ implementation), FIC-MRCC
   Dagmar Lenk            : GEPOL surface, SMD
   Dimitrios Liakos       : Extrapolation schemes; Compound Job, initial MDCI parallelization
   Dimitrios Manganas     : Further ROCIS development; embedding schemes
   Dimitrios Pantazis     : SARC Basis sets
   Anastasios Papadopoulos: AUTO-CI, single reference methods and gradients
   Taras Petrenko         : DFT Hessian,TD-DFT gradient, ASA, ECA, R-Raman, ABS, FL, XAS/XES, NRVS
   Peter Pinski           : DLPNO-MP2, DLPNO-MP2 Gradient
   Christoph Reimann      : Effective Core Potentials
   Marius Retegan         : Local ZFS, SOC
   Christoph Riplinger    : Optimizer, TS searches, QM/MM, DLPNO-CCSD(T), (RO)-DLPNO pert. Triples
   Tobias Risthaus        : Range-separated hybrids, TD-DFT gradient, RPA, STAB
   Michael Roemelt        : Original ROCIS implementation
   Masaaki Saitow         : Open-shell DLPNO-CCSD energy and density
   Barbara Sandhoefer     : DKH picture change effects
   Avijit Sen             : IP-ROCIS
   Kantharuban Sivalingam : CASSCF convergence, NEVPT2, FIC-MRCI
   Bernardo de Souza      : ESD, SOC TD-DFT
   Georgi Stoychev        : AutoAux, RI-MP2 NMR, DLPNO-MP2 response
   Willem Van den Heuvel  : Paramagnetic NMR
   Boris Wezisla          : Elementary symmetry handling
   Frank Wennmohs         : Technical directorship


 We gratefully acknowledge several colleagues who have allowed us to
 interface, adapt or use parts of their codes:
   Stefan Grimme, W. Hujo, H. Kruse, P. Pracht,  : VdW corrections, initial TS optimization,
                  C. Bannwarth, S. Ehlert          DFT functionals, gCP, sTDA/sTD-DF
   Ed Valeev, F. Pavosevic, A. Kumar             : LibInt (2-el integral package), F12 methods
   Garnet Chan, S. Sharma, J. Yang, R. Olivares  : DMRG
   Ulf Ekstrom                                   : XCFun DFT Library
   Mihaly Kallay                                 : mrcc  (arbitrary order and MRCC methods)
   Jiri Pittner, Ondrej Demel                    : Mk-CCSD
   Frank Weinhold                                : gennbo (NPA and NBO analysis)
   Christopher J. Cramer and Donald G. Truhlar   : smd solvation model
   Lars Goerigk                                  : TD-DFT with DH, B97 family of functionals
   V. Asgeirsson, H. Jonsson                     : NEB implementation
   FAccTs GmbH                                   : IRC, NEB, NEB-TS, DLPNO-Multilevel, CI-OPT
                                                   MM, QMMM, 2- and 3-layer-ONIOM, Crystal-QMMM,
                                                   LR-CPCM, SF, NACMEs, symmetry and pop. for TD-DFT,
                                                   nearIR, NL-DFT gradient (VV10), updates on ESD,
                                                   ML-optimized integration grids
   S Lehtola, MJT Oliveira, MAL Marques          : LibXC Library
   Liviu Ungur et al                             : ANISO software


 Your calculation uses the libint2 library for the computation of 2-el integrals
 For citations please refer to: http://libint.valeyev.net

 Your ORCA version has been built with support for libXC version: 5.1.0
 For citations please refer to: https://tddft.org/programs/libxc/

 This ORCA versions uses:
   CBLAS   interface :  Fast vector & matrix operations
   LAPACKE interface :  Fast linear algebra routines
   SCALAPACK package :  Parallel linear algebra routines
   Shared memory     :  Shared parallel matrices
   BLAS/LAPACK       :  OpenBLAS 0.3.15  USE64BITINT DYNAMIC_ARCH NO_AFFINITY SkylakeX SINGLE_THREADED
        Core in use  :  SkylakeX
   Copyright (c) 2011-2014, The OpenBLAS Project




***************************************
The coordinates will be read from file: xtbopt.xyz
***************************************


Your calculation utilizes the geometrical counterpoise correction gCP
Please cite in your paper:
H.Kruse, S. Grimme J.Chem.Phys., 136, (2012), 154101 
   

Your calculation utilizes the atom-pairwise dispersion correction
based on tight binding partial charges (D4)
Cite in your paper:
E.Caldeweyher, C.Bannwarth, S.Grimme, J.Chem.Phys., (2017), 147, 034112.
E.Caldeweyher, S.Ehlert, A.Hansen, H.Neugebauer, S.Grimme, J.Chem.Phys., (2018), in progress.
   

Your calculation utilizes the SMD solvation module
Please cite in your paper:
A.V. Marenich, C.J. Cramer, D.G. Truhlar J. Phys. Chem. B, 113, (2009), 6378 

================================================================================

----- Orbital basis set information -----
Your calculation utilizes the basis: def2-mTZVPP
   Stefan Grimme, Andreas Hansen, Sebastian Ehlert, and Jan-Michael Mewes 
   J. Chem. Phys. 154, 000000 (2021). DOI: 10.1063/5.0040021

----- AuxJ basis set information -----
Your calculation utilizes the auxiliary basis: def2/J
   F. Weigend, Phys. Chem. Chem. Phys. 8, 1057 (2006).

================================================================================
                                        WARNINGS
                       Please study these warnings very carefully!
================================================================================

Using LibXC functional ID 497 : Re-regularized SCAN exchange by Furness et al
[ 1]  J. W. Furness, A. D. Kaplan, J. Ning, J. P. Perdew, and J. Sun, J. Phys. Chem. Lett. 11, 8208 (2020)
[ 2]  J. W. Furness, A. D. Kaplan, J. Ning, J. P. Perdew, and J. Sun, J. Phys. Chem. Lett. 11, 9248 (2020)
Using LibXC functional ID 498 : Re-regularized SCAN correlation by Furness et al
[ 1]  J. W. Furness, A. D. Kaplan, J. Ning, J. P. Perdew, and J. Sun, J. Phys. Chem. Lett. 11, 8208 (2020)
[ 2]  J. W. Furness, A. D. Kaplan, J. Ning, J. P. Perdew, and J. Sun, J. Phys. Chem. Lett. 11, 9248 (2020)
Using LibXC functional ID 497 : Re-regularized SCAN exchange by Furness et al
[ 1]  J. W. Furness, A. D. Kaplan, J. Ning, J. P. Perdew, and J. Sun, J. Phys. Chem. Lett. 11, 8208 (2020)
[ 2]  J. W. Furness, A. D. Kaplan, J. Ning, J. P. Perdew, and J. Sun, J. Phys. Chem. Lett. 11, 9248 (2020)
Using LibXC functional ID 498 : Re-regularized SCAN correlation by Furness et al
[ 1]  J. W. Furness, A. D. Kaplan, J. Ning, J. P. Perdew, and J. Sun, J. Phys. Chem. Lett. 11, 8208 (2020)
[ 2]  J. W. Furness, A. D. Kaplan, J. Ning, J. P. Perdew, and J. Sun, J. Phys. Chem. Lett. 11, 9248 (2020)

INFO   : the flag for use of the SHARK integral package has been found!

================================================================================
                                       INPUT FILE
================================================================================
NAME = ORCA.in
|  1> ! r2SCAN-3c ENERGY TightSCF defgrid3 def2/J
|  2> %maxcore 8000
|  3> %PAL NPROCS 8 END
|  4> %CPCM SMD TRUE
|  5>       SMDSOLVENT "MeCN"
|  6> END
|  7> *xyzfile 2 1  xtbopt.xyz
|  8> 
|  9>                          ****END OF INPUT****
================================================================================

                       ****************************
                       * Single Point Calculation *
                       ****************************

---------------------------------
CARTESIAN COORDINATES (ANGSTROEM)
---------------------------------
  Ca     0.740714   -3.121701    0.162172
  C     -1.275826    0.839669    2.044948
  C     -0.626895   -0.136325    1.235696
  N     -0.088104   -0.904786    0.581014
  H     -0.543365    1.575965    2.380727
  H     -1.725971    0.360499    2.914844
  H     -2.055865    1.334945    1.469430
  C      2.496940   -7.102675    2.453392
  C      2.031792   -5.928717    1.782644
  N      1.665100   -4.989076    1.245524
  H      3.110393   -7.693726    1.774080
  H      1.645704   -7.699026    2.780112
  H      3.091771   -6.817919    3.320669
  C      2.785462    0.078599   -1.522429
  C      2.562058    1.231447   -2.334367
  N      2.397912    2.158855   -2.988285
  H      2.633921    0.333653   -0.474579
  H      3.809534   -0.265605   -1.669755
  H      2.087364   -0.713995   -1.795735
  C     -4.132921   -3.850146   -0.090557
  C     -2.724393   -3.675624    0.036977
  N     -1.592394   -3.540714    0.134614
  H     -4.441240   -4.752549    0.435642
  H     -4.397340   -3.935452   -1.143478
  H     -4.649738   -2.989560    0.338798
  C     -1.359387   -1.653588   -3.991124
  C     -0.529761   -1.969181   -2.878169
  N      0.151997   -2.217612   -1.992590
  H     -2.148417   -0.971199   -3.671210
  H     -1.804569   -2.566886   -4.387742
  H     -0.764680   -1.174504   -4.767969
  C      2.312086    4.919451    3.996175
  C      1.634695    3.768657    3.493568
  N      1.095227    2.840591    3.092829
  H      2.974929    5.317348    3.225716
  H      2.900586    4.642217    4.869933
  H      1.585461    5.681310    4.275916
  C     -4.750675    1.630831    5.688880
  C     -3.741891    0.716525    5.263426
  N     -2.932856   -0.015346    4.913120
  H     -5.499365    1.103536    6.278603
  H     -5.224142    2.077670    4.812956
  H     -4.300038    2.415577    6.295314
  C     -5.202289    2.513898   -2.527379
  C     -4.288574    1.451096   -2.810070
  N     -3.555856    0.601386   -3.038284
  H     -4.703466    3.269332   -1.918868
  H     -6.062013    2.119037   -1.988107
  H     -5.535954    2.965547   -3.460950
  C      7.595613    1.486003   -2.781436
  C      6.763778    0.347705   -2.548127
  N      6.095621   -0.562606   -2.359303
  H      7.035855    2.393355   -2.556741
  H      7.908805    1.500851   -3.824872
  H      8.474563    1.430864   -2.139950
  C      4.187152    8.330536    0.148338
  C      4.275166    7.207938    1.021931
  N      4.344033    6.305663    1.726233
  H      3.914071    7.991498   -0.852431
  H      5.149874    8.838580    0.107519
  H      3.429180    9.021151    0.516040
  C     -1.021584   -2.650460    4.967495
  C     -0.506540   -2.904300    3.661118
  N     -0.089175   -3.106081    2.614922
  H     -1.656965   -1.763289    4.942952
  H     -0.199121   -2.484583    5.661893
  H     -1.611517   -3.502617    5.302293
  C     -5.975534    5.194572    1.484029
  C     -6.031023    4.030756    2.306597
  N     -6.075974    3.092121    2.963089
  H     -6.920708    5.314191    0.955754
  H     -5.164913    5.091176    0.760797
  H     -5.795844    6.071480    2.104958
  C      6.840814    4.067441    2.295300
  C      6.299511    2.747189    2.215195
  N      5.855453    1.693255    2.154540
  H      7.256885    4.231275    3.288641
  H      6.046900    4.793245    2.110292
  H      7.625391    4.191071    1.550154
  C      3.279754    6.443521   -5.286560
  C      3.349295    6.958538   -3.955014
  N      3.405054    7.370326   -2.887826
  H      4.049514    5.684756   -5.421506
  H      3.436332    7.252852   -5.998925
  H      2.300792    5.995853   -5.452282
  C     -0.460619   -6.277556   -3.554548
  C     -0.023122   -5.630972   -2.358659
  N      0.331315   -5.119346   -1.398692
  H      0.396092   -6.478950   -4.196281
  H     -1.161464   -5.630449   -4.084312
  H     -0.955032   -7.216224   -3.307252
  C     -1.058079    5.495016   -1.430990
  C     -2.398297    5.192388   -1.044509
  N     -3.474413    4.946422   -0.736687
  H     -0.884439    5.135672   -2.444549
  H     -0.361642    5.004039   -0.752252
  H     -0.902955    6.572853   -1.396350
  C     -4.243432   -4.652186   -7.367738
  C     -3.349371   -4.556433   -6.258011
  N     -2.632595   -4.477690   -5.368059
  H     -4.988489   -3.859608   -7.304811
  H     -4.742724   -5.620602   -7.352170
  H     -3.683169   -4.549322   -8.296580
  C      3.244700   -0.071839    3.079155
  C      2.799052   -1.099018    2.196258
  N      2.442697   -1.919196    1.481897
  H      2.482706    0.705789    3.145067
  H      4.168650    0.369496    2.699585
  H      3.427710   -0.486943    4.068881
  C      5.171195   -3.633147   -1.834217
  C      3.827896   -3.473377   -1.383023
  N      2.750501   -3.330316   -1.026594
  H      5.770662   -4.090973   -1.048833
  H      5.583430   -2.651196   -2.074058
  H      5.194096   -4.261383   -2.723375
  C     -7.597467    0.133341    2.279336
  C     -6.653202   -0.735414    1.650551
  N     -5.893031   -1.427735    1.146357
  H     -7.991614   -0.344355    3.175338
  H     -8.416719    0.341950    1.592305
  H     -7.104737    1.068274    2.551285

----------------------------
CARTESIAN COORDINATES (A.U.)
----------------------------
  NO LB      ZA    FRAG     MASS         X           Y           Z
   0 Ca   20.0000    0    40.080    1.399746   -5.899161    0.306462
   1 C     6.0000    0    12.011   -2.410963    1.586745    3.864392
   2 C     6.0000    0    12.011   -1.184660   -0.257616    2.335127
   3 N     7.0000    0    14.007   -0.166492   -1.709798    1.097956
   4 H     1.0000    0     1.008   -1.026811    2.978141    4.498922
   5 H     1.0000    0     1.008   -3.261612    0.681244    5.508257
   6 H     1.0000    0     1.008   -3.885022    2.522680    2.776819
   7 C     6.0000    0    12.011    4.718533  -13.422111    4.636239
   8 C     6.0000    0    12.011    3.839530  -11.203651    3.368710
   9 N     7.0000    0    14.007    3.146583   -9.427988    2.353700
  10 H     1.0000    0     1.008    5.877791  -14.539035    3.352525
  11 H     1.0000    0     1.008    3.109931  -14.549050    5.253650
  12 H     1.0000    0     1.008    5.842600  -12.883999    6.275155
  13 C     6.0000    0    12.011    5.263759    0.148530   -2.876973
  14 C     6.0000    0    12.011    4.841588    2.327098   -4.411315
  15 N     7.0000    0    14.007    4.531398    4.079644   -5.647040
  16 H     1.0000    0     1.008    4.977389    0.630512   -0.896825
  17 H     1.0000    0     1.008    7.198976   -0.501920   -3.155380
  18 H     1.0000    0     1.008    3.944545   -1.349254   -3.393447
  19 C     6.0000    0    12.011   -7.810089   -7.275721   -0.171127
  20 C     6.0000    0    12.011   -5.148356   -6.945923    0.069877
  21 N     7.0000    0    14.007   -3.009189   -6.690979    0.254384
  22 H     1.0000    0     1.008   -8.392727   -8.981016    0.823245
  23 H     1.0000    0     1.008   -8.309769   -7.436926   -2.160861
  24 H     1.0000    0     1.008   -8.786731   -5.649449    0.640235
  25 C     6.0000    0    12.011   -2.568870   -3.124828   -7.542131
  26 C     6.0000    0    12.011   -1.001103   -3.721213   -5.438951
  27 N     7.0000    0    14.007    0.287233   -4.190679   -3.765448
  28 H     1.0000    0     1.008   -4.059919   -1.835301   -6.937581
  29 H     1.0000    0     1.008   -3.410141   -4.850711   -8.291631
  30 H     1.0000    0     1.008   -1.445035   -2.219491   -9.010156
  31 C     6.0000    0    12.011    4.369209    9.296414    7.551677
  32 C     6.0000    0    12.011    3.089125    7.121730    6.601886
  33 N     7.0000    0    14.007    2.069679    5.367940    5.844599
  34 H     1.0000    0     1.008    5.621800   10.048331    6.095721
  35 H     1.0000    0     1.008    5.481313    8.772519    9.202840
  36 H     1.0000    0     1.008    2.996087   10.736120    8.080310
  37 C     6.0000    0    12.011   -8.977475    3.081824   10.750426
  38 C     6.0000    0    12.011   -7.071149    1.354036    9.946434
  39 N     7.0000    0    14.007   -5.542294   -0.029000    9.284451
  40 H     1.0000    0     1.008  -10.392294    2.085381   11.864841
  41 H     1.0000    0     1.008   -9.872198    3.926226    9.095169
  42 H     1.0000    0     1.008   -8.125893    4.564780   11.896420
  43 C     6.0000    0    12.011   -9.830902    4.750579   -4.776053
  44 C     6.0000    0    12.011   -8.104231    2.742175   -5.310263
  45 N     7.0000    0    14.007   -6.719594    1.136456   -5.741524
  46 H     1.0000    0     1.008   -8.888263    6.178143   -3.626136
  47 H     1.0000    0     1.008  -11.455545    4.004399   -3.756978
  48 H     1.0000    0     1.008  -10.461436    5.604071   -6.540248
  49 C     6.0000    0    12.011   14.353627    2.808138   -5.256152
  50 C     6.0000    0    12.011   12.781688    0.657068   -4.815261
  51 N     7.0000    0    14.007   11.519055   -1.063171   -4.458437
  52 H     1.0000    0     1.008   13.295839    4.522785   -4.831540
  53 H     1.0000    0     1.008   14.945475    2.836197   -7.227961
  54 H     1.0000    0     1.008   16.014603    2.703941   -4.043920
  55 C     6.0000    0    12.011    7.912570   15.742432    0.280318
  56 C     6.0000    0    12.011    8.078893   13.621030    1.931170
  57 N     7.0000    0    14.007    8.209032   11.915976    3.262108
  58 H     1.0000    0     1.008    7.396522   15.101742   -1.610862
  59 H     1.0000    0     1.008    9.731852   16.702495    0.203182
  60 H     1.0000    0     1.008    6.480211   17.047505    0.975175
  61 C     6.0000    0    12.011   -1.930514   -5.008644    9.387205
  62 C     6.0000    0    12.011   -0.957222   -5.488332    6.918510
  63 N     7.0000    0    14.007   -0.168517   -5.869642    4.941487
  64 H     1.0000    0     1.008   -3.131211   -3.332133    9.340826
  65 H     1.0000    0     1.008   -0.376285   -4.695182   10.699427
  66 H     1.0000    0     1.008   -3.045325   -6.618986   10.019881
  67 C     6.0000    0    12.011  -11.292122    9.816318    2.804408
  68 C     6.0000    0    12.011  -11.396981    7.617024    4.358836
  69 N     7.0000    0    14.007  -11.481927    5.843261    5.599427
  70 H     1.0000    0     1.008  -13.078244   10.042366    1.806114
  71 H     1.0000    0     1.008   -9.760271    9.620928    1.437698
  72 H     1.0000    0     1.008  -10.952558   11.473434    3.977795
  73 C     6.0000    0    12.011   12.927264    7.686350    4.337488
  74 C     6.0000    0    12.011   11.904351    5.191435    4.186111
  75 N     7.0000    0    14.007   11.065203    3.199788    4.071490
  76 H     1.0000    0     1.008   13.713526    7.995951    6.214630
  77 H     1.0000    0     1.008   11.426985    9.057920    3.987875
  78 H     1.0000    0     1.008   14.409901    7.919976    2.929367
  79 C     6.0000    0    12.011    6.197837   12.176490   -9.990150
  80 C     6.0000    0    12.011    6.329251   13.149732   -7.473894
  81 N     7.0000    0    14.007    6.434619   13.927898   -5.457201
  82 H     1.0000    0     1.008    7.652472   10.742631  -10.245162
  83 H     1.0000    0     1.008    6.493727   13.705904  -11.336325
  84 H     1.0000    0     1.008    4.347867   11.330521  -10.303319
  85 C     6.0000    0    12.011   -0.870444  -11.862861   -6.717122
  86 C     6.0000    0    12.011   -0.043695  -10.640994   -4.457220
  87 N     7.0000    0    14.007    0.626094   -9.674162   -2.643146
  88 H     1.0000    0     1.008    0.748506  -12.243440   -7.929821
  89 H     1.0000    0     1.008   -2.194849  -10.640007   -7.718232
  90 H     1.0000    0     1.008   -1.804748  -13.636686   -6.249801
  91 C     6.0000    0    12.011   -1.999479   10.384075   -2.704180
  92 C     6.0000    0    12.011   -4.532125    9.812192   -1.973836
  93 N     7.0000    0    14.007   -6.565688    9.347382   -1.392136
  94 H     1.0000    0     1.008   -1.671347    9.705014   -4.619528
  95 H     1.0000    0     1.008   -0.683405    9.456263   -1.421549
  96 H     1.0000    0     1.008   -1.706338   12.420892   -2.638720
  97 C     6.0000    0    12.011   -8.018924   -8.791357  -13.923008
  98 C     6.0000    0    12.011   -6.329394   -8.610410  -11.825926
  99 N     7.0000    0    14.007   -4.974883   -8.461607  -10.144161
 100 H     1.0000    0     1.008   -9.426877   -7.293602  -13.804092
 101 H     1.0000    0     1.008   -8.962449  -10.621399  -13.893588
 102 H     1.0000    0     1.008   -6.960181   -8.596973  -15.678264
 103 C     6.0000    0    12.011    6.131595   -0.135756    5.818759
 104 C     6.0000    0    12.011    5.289441   -2.076843    4.150326
 105 N     7.0000    0    14.007    4.616027   -3.626756    2.800380
 106 H     1.0000    0     1.008    4.691634    1.333748    5.943315
 107 H     1.0000    0     1.008    7.877607    0.698245    5.101477
 108 H     1.0000    0     1.008    6.477433   -0.920188    7.689071
 109 C     6.0000    0    12.011    9.772142   -6.865654   -3.466168
 110 C     6.0000    0    12.011    7.233675   -6.563731   -2.613535
 111 N     7.0000    0    14.007    5.197694   -6.293386   -1.939982
 112 H     1.0000    0     1.008   10.904971   -7.730819   -1.982007
 113 H     1.0000    0     1.008   10.551153   -5.010035   -3.919402
 114 H     1.0000    0     1.008    9.815418   -8.052847   -5.146433
 115 C     6.0000    0    12.011  -14.357132    0.251978    4.307320
 116 C     6.0000    0    12.011  -12.572731   -1.389731    3.119088
 117 N     7.0000    0    14.007  -11.136215   -2.698029    2.166301
 118 H     1.0000    0     1.008  -15.101962   -0.650736    6.000520
 119 H     1.0000    0     1.008  -15.905294    0.646192    3.009020
 120 H     1.0000    0     1.008  -13.426006    2.018745    4.821229

--------------------------------
INTERNAL COORDINATES (ANGSTROEM)
--------------------------------
 Ca     0   0   0     0.000000000000     0.00000000     0.00000000
 C      1   0   0     4.827394137936     0.00000000     0.00000000
 C      2   1   0     1.424277261793    13.03024044     0.00000000
 N      3   2   1     1.144306451027   178.80492753   228.12947892
 H      2   1   4     1.091502504297   113.15473576   286.18092857
 H      2   1   4     1.090391008650    97.06462057   171.81775447
 H      2   1   4     1.088567850862   117.80666085    55.92904277
 C      1   2   7     4.917536755986   129.18158643   212.87246345
 C      8   1   2     1.429840192865     1.94713378   259.64502052
 N      9   8   1     1.142753274546   179.73154427   187.30682840
 H      8   1   2     1.089555499634   110.47126274   194.65914259
 H      8   1   2     1.089487146589   107.68649311    75.40382661
 H      8   1   2     1.089531965376   110.74939294   315.91686454
 C      4   3   2     3.694440690712   120.87807609   349.81681485
 C     14   4   3     1.427660070621   114.64733116   310.30703883
 N     15  14   4     1.146575917400   179.22743456   162.19502709
 H     14   4   3     1.089038775987    53.57909439    47.27451326
 H     14   4   3     1.090369324810   136.33738933   127.44174715
 H     14   4   3     1.090981809182    56.73916075   211.57885782
 C      1   2   7     4.934249355965    74.24796706   309.46005190
 C     20   1   2     1.425017532244     2.62503530   261.78212209
 N     21  20   1     1.144182783300   179.64229436   278.84103849
 H     20   1   2     1.089163420549   112.15859328   237.75272874
 H     20   1   2     1.088962196717   107.51309684   117.34857788
 H     20   1   2     1.091812046553   109.33160877   359.04601630
 C     19  14   4     4.193168404138   145.07755161    95.84956897
 C     26  19  14     1.423568732178    32.99805639   206.10829164
 N     27  26  19     1.144885695236   179.08994321   327.01795116
 H     26  19  14     1.091130841228   107.50349193   304.81241336
 H     26  19  14     1.090690395387   135.52280111   159.45208501
 H     26  19  14     1.089351685262    79.98369897    51.93523187
 C      5   2   1     4.684247223815   175.30802886   191.54088103
 C     32   5   2     1.426814255935     9.39733857   156.46672319
 N     33  32   5     1.145828591644   179.66823287   208.65950900
 H     32   5   2     1.091462419936   112.76596792   227.84238439
 H     32   5   2     1.089331543668   115.10564050   101.47753365
 H     32   5   2     1.089342969763   100.43637796   344.12130524
 C      6   2   1     4.296261205967   132.51820303   195.32914109
 C     38   6   2     1.426398503335    28.35422313   188.15411881
 N     39  38   6     1.145812949601   179.54892320   334.28416836
 H     38   6   2     1.089196672786   133.66059483   150.01976767
 H     38   6   2     1.091365492136    84.73671421    37.90309008
 H     38   6   2     1.089340748521   106.33274165   289.25704350
 C     29  26  19     4.772880727496   171.73237512    63.68828080
 C     44  29  26     1.429802945064     2.51857724   234.18674203
 N     45  44  29     1.144973574338   179.87434759    29.67622611
 H     44  29  26     1.090774782811   110.29130723   304.91245786
 H     44  29  26     1.088969548890   111.04214821   183.17996780
 H     44  29  26     1.089437855084   107.05645272    63.76611467
 C     18  14   4     4.317215983287   136.91696877   210.01156682
 C     50  18  14     1.429021724242    28.87077208   192.26673189
 N     51  50  18     1.144881407049   179.84726501   334.66918404
 H     50  18  14     1.089542745334    80.45799833    14.48392337
 H     50  18  14     1.089527324570   120.28007051   267.39519639
 H     50  18  14     1.089540086603   122.36617655   121.69290939
 C     35  32   5     4.474265213886   153.58011291    98.70497276
 C     56  35  32     1.425180195897    20.71777559   170.61927077
 N     57  56  35     1.146684418841   179.87046545   340.28064587
 H     56  35  32     1.091356520834   110.71378738   260.96813921
 H     56  35  32     1.089315692715   125.40183138   126.23780002
 H     56  35  32     1.089345964076    90.35924899    11.92821916
 C     40  39  38     3.255724899651   157.87680160   206.64265894
 C     62  40  39     1.426998836382   109.91150892   160.05800897
 N     63  62  40     1.144304945498   179.75465070   104.42222617
 H     62  40  39     1.091505805493     0.47760281   194.58998074
 H     62  40  39     1.089104458970   109.31125362   280.59544253
 H     62  40  39     1.089165275495   108.68824577    39.94475340
 C     47  44  29     4.111497542729   130.13074871   224.13235980
 C     68  47  44     1.426241607832    96.15840673    64.24347147
 N     69  68  47     1.146315149745   179.71698096   338.52367266
 H     68  47  44     1.089375212321    85.32511822   314.98829902
 H     68  47  44     1.091265770539    34.64238978   179.99576717
 H     68  47  44     1.089407736076   142.90391185   198.71369630
 C     58  57  56     3.401086232961   131.65773981   199.70128761
 C     74  58  57     1.429157857295   108.69401050   229.81227886
 N     75  74  58     1.145269893437   179.41937955   330.94098746
 H     74  58  57     1.089349762340   109.51107933   110.15750276
 H     74  58  57     1.091474721477     0.56587634    30.06157650
 H     74  58  57     1.089076530534   109.85708740   350.01928907
 C     59  56  35     4.739207100469   173.18141469   251.03607918
 C     80  59  56     1.429367638837     5.25577038   196.88883567
 N     81  80  59     1.145237414006   179.95417071   293.57393302
 H     80  59  56     1.089250154475   104.40994759    35.24022760
 H     80  59  56     1.089493878281   110.48024791   277.52540772
 H     80  59  56     1.089144551666   113.38587354   154.07961422
 C     30  26  19     4.033545003345   124.00157973     8.19063696
 C     86  30  26     1.428154397596    81.86770946    27.26033868
 N     87  86  30     1.144081252798   179.61273997   189.09309362
 H     86  30  26     1.089189897510   108.08767808   279.16989471
 H     86  30  26     1.091137615612    30.69603746   181.84825399
 H     86  30  26     1.089356056862   133.50106210   136.92841813
 C     47  44  29     4.298900265344   144.06347437    40.57370653
 C     92  47  44     1.427283147107    28.91962993   177.33591084
 N     93  92  47     1.145983494471   179.80575112     7.17226462
 H     92  47  44     1.089302453398    81.88170432    15.33960497
 H     92  47  44     1.089388909666   112.30137285   267.83126044
 H     92  47  44     1.089493455945   129.53424500   123.92544966
 C     30  26  19     4.379144469207   150.86961306   209.27701507
 C     98  30  26     1.428288854404    24.59633287   170.93305121
 N     99  98  30     1.145418196986   179.90167674     5.94013342
 H     98  30  26     1.089609574564    89.72147288   315.42348307
 H     98  30  26     1.089662977453   131.96443660   199.15590539
 H     98  30  26     1.089597265898   104.40513373    65.40364883
 C     76  75  74     3.284281013977   141.98813973   346.07914860
 C    104  76  75     1.425905323177   117.46970276   146.08975457
 N    105 104  76     1.144549081147   179.63655661   320.75921467
 H    104  76  75     1.090726830335   100.90566214    27.27395497
 H    104  76  75     1.092031307753     9.02284061   180.18784493
 H    104  76  75     1.088743158791   109.09955247   271.99527432
 C     52  51  50     3.249385467775   160.74041241   220.26131460
 C    110  52  51     1.426027944340   102.31255491   165.17602844
 N    111 110  52     1.143803948503   179.20446515    15.31887865
 H    110  52  51     1.088941368798   110.92991496    48.22053777
 H    110  52  51     1.091645074593     6.81139348   331.76575802
 H    110  52  51     1.088947280102   114.03133521   283.95857599
 C     70  69  68     3.396592112150   127.99270317   331.01341641
 C    116  70  69     1.428895401166   108.79526357    91.65782256
 N    117 116  70     1.145154955060   179.73956014   352.63250309
 H    116  70  69     1.089204108692   112.24332471   213.05152599
 H    116  70  69     1.089358746007   107.27891858   333.13980459
 H    116  70  69     1.091255769249     2.87275260   194.31014582

---------------------------
INTERNAL COORDINATES (A.U.)
---------------------------
 Ca     0   0   0     0.000000000000     0.00000000     0.00000000
 C      1   0   0     9.122452861196     0.00000000     0.00000000
 C      2   1   0     2.691493963561    13.03024044     0.00000000
 N      3   2   1     2.162425805720   178.80492753   228.12947892
 H      2   1   4     2.062640807610   113.15473576   286.18092857
 H      2   1   4     2.060540385239    97.06462057   171.81775447
 H      2   1   4     2.057095116320   117.80666085    55.92904277
 C      1   2   7     9.292797722305   129.18158643   212.87246345
 C      8   1   2     2.702006379788     1.94713378   259.64502052
 N      9   8   1     2.159490727534   179.73154427   187.30682840
 H      8   1   2     2.058961502016   110.47126274   194.65914259
 H      8   1   2     2.058832333481   107.68649311    75.40382661
 H      8   1   2     2.058917028713   110.74939294   315.91686454
 C      4   3   2     6.981481123460   120.87807609   349.81681485
 C     14   4   3     2.697886545809   114.64733116   310.30703883
 N     15  14   4     2.166714475636   179.22743456   162.19502709
 H     14   4   3     2.057985035835    53.57909439    47.27451326
 H     14   4   3     2.060499408719   136.33738933   127.44174715
 H     14   4   3     2.061656836444    56.73916075   211.57885782
 C      1   2   7     9.324379959250    74.24796706   309.46005190
 C     20   1   2     2.692892871977     2.62503530   261.78212209
 N     21  20   1     2.162192107584   179.64229436   278.84103849
 H     20   1   2     2.058220579923   112.15859328   237.75272874
 H     20   1   2     2.057840321988   107.51309684   117.34857788
 H     20   1   2     2.063225757701   109.33160877   359.04601630
 C     19  14   4     7.923939917232   145.07755161    95.84956897
 C     26  19  14     2.690155036630    32.99805639   206.10829164
 N     27  26  19     2.163520418641   179.08994321   327.01795116
 H     26  19  14     2.061938466196   107.50349193   304.81241336
 H     26  19  14     2.061106144179   135.52280111   159.45208501
 H     26  19  14     2.058576348671    79.98369897    51.93523187
 C      5   2   1     8.851944396592   175.30802886   191.54088103
 C     32   5   2     2.696288187692     9.39733857   156.46672319
 N     33  32   5     2.165302234624   179.66823287   208.65950900
 H     32   5   2     2.062565059146   112.76596792   227.84238439
 H     32   5   2     2.058538286574   115.10564050   101.47753365
 H     32   5   2     2.058559878765   100.43637796   344.12130524
 C      6   2   1     8.118757079067   132.51820303   195.32914109
 C     38   6   2     2.695502529138    28.35422313   188.15411881
 N     39  38   6     2.165272675446   179.54892320   334.28416836
 H     38   6   2     2.058283417544   133.66059483   150.01976767
 H     38   6   2     2.062381892149    84.73671421    37.90309008
 H     38   6   2     2.058555681226   106.33274165   289.25704350
 C     29  26  19     9.019437444838   171.73237512    63.68828080
 C     44  29  26     2.701935991645     2.51857724   234.18674203
 N     45  44  29     2.163686486076   179.87434759    29.67622611
 H     44  29  26     2.061265613300   110.29130723   304.91245786
 H     44  29  26     2.057854215582   111.04214821   183.17996780
 H     44  29  26     2.058739186035   107.05645272    63.76611467
 C     18  14   4     8.158355869401   136.91696877   210.01156682
 C     50  18  14     2.700459698241    28.87077208   192.26673189
 N     51  50  18     2.163512315140   179.84726501   334.66918404
 H     50  18  14     2.058937399881    80.45799833    14.48392337
 H     50  18  14     2.058908258860   120.28007051   267.39519639
 H     50  18  14     2.058932375609   122.36617655   121.69290939
 C     35  32   5     8.455135904775   153.58011291    98.70497276
 C     56  35  32     2.693200261734    20.71777559   170.61927077
 N     57  56  35     2.166919513645   179.87046545   340.28064587
 H     56  35  32     2.062364938846   110.71378738   260.96813921
 H     56  35  32     2.058508332613   125.40183138   126.23780002
 H     56  35  32     2.058565537196    90.35924899    11.92821916
 C     40  39  38     6.152428427728   157.87680160   206.64265894
 C     62  40  39     2.696636994186   109.91150892   160.05800897
 N     63  62  40     2.162422960684   179.75465070   104.42222617
 H     62  40  39     2.062647045967     0.47760281   194.58998074
 H     62  40  39     2.058109158687   109.31125362   280.59544253
 H     62  40  39     2.058224085263   108.68824577    39.94475340
 C     47  44  29     7.769604356048   130.13074871   224.13235980
 C     68  47  44     2.695206039606    96.15840673    64.24347147
 N     69  68  47     2.166221696183   179.71698096   338.52367266
 H     68  47  44     2.058620808369    85.32511822   314.98829902
 H     68  47  44     2.062193445641    34.64238978   179.99576717
 H     68  47  44     2.058682269359   142.90391185   198.71369630
 C     58  57  56     6.427121538145   131.65773981   199.70128761
 C     74  58  57     2.700716952429   108.69401050   229.81227886
 N     75  74  58     2.164246448021   179.41937955   330.94098746
 H     74  58  57     2.058572714875   109.51107933   110.15750276
 H     74  58  57     2.062588305690     0.56587634    30.06157650
 H     74  58  57     2.058056381590   109.85708740   350.01928907
 C     59  56  35     8.955803511822   173.18141469   251.03607918
 C     80  59  56     2.701113382091     5.25577038   196.88883567
 N     81  80  59     2.164185070792   179.95417071   293.57393302
 H     80  59  56     2.058384483289   104.40994759    35.24022760
 H     80  59  56     2.058845054534   110.48024791   277.52540772
 H     80  59  56     2.058184922900   113.38587354   154.07961422
 C     30  26  19     7.622295405168   124.00157973     8.19063696
 C     86  30  26     2.698820688412    81.86770946    27.26033868
 N     87  86  30     2.162000242742   179.61273997   189.09309362
 H     86  30  26     2.058270614128   108.08767808   279.16989471
 H     86  30  26     2.061951267927    30.69603746   181.84825399
 H     86  30  26     2.058584609798   133.50106210   136.92841813
 C     47  44  29     8.123744178542   144.06347437    40.57370653
 C     92  47  44     2.697174263593    28.91962993   177.33591084
 N     93  92  47     2.165594958543   179.80575112     7.17226462
 H     92  47  44     2.058483313931    81.88170432    15.33960497
 H     92  47  44     2.058646692600   112.30137285   267.83126044
 H     92  47  44     2.058844256435   129.53424500   123.92544966
 C     30  26  19     8.275383747677   150.86961306   209.27701507
 C     98  30  26     2.699074774956    24.59633287   170.93305121
 N     99  98  30     2.164526701113   179.90167674     5.94013342
 H     98  30  26     2.059063688823    89.72147288   315.42348307
 H     98  30  26     2.059164605659   131.96443660   199.15590539
 H     98  30  26     2.059040428816   104.40513373    65.40364883
 C     76  75  74     6.206391663253   141.98813973   346.07914860
 C    104  76  75     2.694570553705   117.46970276   146.08975457
 N    105 104  76     2.162884310199   179.63655661   320.75921467
 H    104  76  75     2.061174996254   100.90566214    27.27395497
 H    104  76  75     2.063640101322     9.02284061   180.18784493
 H    104  76  75     2.057426400295   109.09955247   271.99527432
 C     52  51  50     6.140448637639   160.74041241   220.26131460
 C    110  52  51     2.694802274121   102.31255491   165.17602844
 N    111 110  52     2.161476213568   179.20446515    15.31887865
 H    110  52  51     2.057800962925   110.92991496    48.22053777
 H    110  52  51     2.062910226424     6.81139348   331.76575802
 H    110  52  51     2.057812133670   114.03133521   283.95857599
 C     70  69  68     6.418628880601   127.99270317   331.01341641
 C    116  70  69     2.700220982224   108.79526357    91.65782256
 N    117 116  70     2.164029245966   179.73956014   352.63250309
 H    116  70  69     2.058297469370   112.24332471   213.05152599
 H    116  70  69     2.058589691544   107.27891858   333.13980459
 H    116  70  69     2.062174545943     2.87275260   194.31014582

---------------------
BASIS SET INFORMATION
---------------------
There are 4 groups of distinct atoms

 Group   1 Type Ca  : 17s11p4d contracted to 6s4p2d pattern {842111/6311/31}
 Group   2 Type C   : 11s6p1d contracted to 5s3p1d pattern {62111/411/1}
 Group   3 Type N   : 11s6p2d contracted to 5s3p2d pattern {62111/411/11}
 Group   4 Type H   : 4s1p contracted to 2s1p pattern {31/1}

Atom   0Ca   basis set group =>   1
Atom   1C    basis set group =>   2
Atom   2C    basis set group =>   2
Atom   3N    basis set group =>   3
Atom   4H    basis set group =>   4
Atom   5H    basis set group =>   4
Atom   6H    basis set group =>   4
Atom   7C    basis set group =>   2
Atom   8C    basis set group =>   2
Atom   9N    basis set group =>   3
Atom  10H    basis set group =>   4
Atom  11H    basis set group =>   4
Atom  12H    basis set group =>   4
Atom  13C    basis set group =>   2
Atom  14C    basis set group =>   2
Atom  15N    basis set group =>   3
Atom  16H    basis set group =>   4
Atom  17H    basis set group =>   4
Atom  18H    basis set group =>   4
Atom  19C    basis set group =>   2
Atom  20C    basis set group =>   2
Atom  21N    basis set group =>   3
Atom  22H    basis set group =>   4
Atom  23H    basis set group =>   4
Atom  24H    basis set group =>   4
Atom  25C    basis set group =>   2
Atom  26C    basis set group =>   2
Atom  27N    basis set group =>   3
Atom  28H    basis set group =>   4
Atom  29H    basis set group =>   4
Atom  30H    basis set group =>   4
Atom  31C    basis set group =>   2
Atom  32C    basis set group =>   2
Atom  33N    basis set group =>   3
Atom  34H    basis set group =>   4
Atom  35H    basis set group =>   4
Atom  36H    basis set group =>   4
Atom  37C    basis set group =>   2
Atom  38C    basis set group =>   2
Atom  39N    basis set group =>   3
Atom  40H    basis set group =>   4
Atom  41H    basis set group =>   4
Atom  42H    basis set group =>   4
Atom  43C    basis set group =>   2
Atom  44C    basis set group =>   2
Atom  45N    basis set group =>   3
Atom  46H    basis set group =>   4
Atom  47H    basis set group =>   4
Atom  48H    basis set group =>   4
Atom  49C    basis set group =>   2
Atom  50C    basis set group =>   2
Atom  51N    basis set group =>   3
Atom  52H    basis set group =>   4
Atom  53H    basis set group =>   4
Atom  54H    basis set group =>   4
Atom  55C    basis set group =>   2
Atom  56C    basis set group =>   2
Atom  57N    basis set group =>   3
Atom  58H    basis set group =>   4
Atom  59H    basis set group =>   4
Atom  60H    basis set group =>   4
Atom  61C    basis set group =>   2
Atom  62C    basis set group =>   2
Atom  63N    basis set group =>   3
Atom  64H    basis set group =>   4
Atom  65H    basis set group =>   4
Atom  66H    basis set group =>   4
Atom  67C    basis set group =>   2
Atom  68C    basis set group =>   2
Atom  69N    basis set group =>   3
Atom  70H    basis set group =>   4
Atom  71H    basis set group =>   4
Atom  72H    basis set group =>   4
Atom  73C    basis set group =>   2
Atom  74C    basis set group =>   2
Atom  75N    basis set group =>   3
Atom  76H    basis set group =>   4
Atom  77H    basis set group =>   4
Atom  78H    basis set group =>   4
Atom  79C    basis set group =>   2
Atom  80C    basis set group =>   2
Atom  81N    basis set group =>   3
Atom  82H    basis set group =>   4
Atom  83H    basis set group =>   4
Atom  84H    basis set group =>   4
Atom  85C    basis set group =>   2
Atom  86C    basis set group =>   2
Atom  87N    basis set group =>   3
Atom  88H    basis set group =>   4
Atom  89H    basis set group =>   4
Atom  90H    basis set group =>   4
Atom  91C    basis set group =>   2
Atom  92C    basis set group =>   2
Atom  93N    basis set group =>   3
Atom  94H    basis set group =>   4
Atom  95H    basis set group =>   4
Atom  96H    basis set group =>   4
Atom  97C    basis set group =>   2
Atom  98C    basis set group =>   2
Atom  99N    basis set group =>   3
Atom 100H    basis set group =>   4
Atom 101H    basis set group =>   4
Atom 102H    basis set group =>   4
Atom 103C    basis set group =>   2
Atom 104C    basis set group =>   2
Atom 105N    basis set group =>   3
Atom 106H    basis set group =>   4
Atom 107H    basis set group =>   4
Atom 108H    basis set group =>   4
Atom 109C    basis set group =>   2
Atom 110C    basis set group =>   2
Atom 111N    basis set group =>   3
Atom 112H    basis set group =>   4
Atom 113H    basis set group =>   4
Atom 114H    basis set group =>   4
Atom 115C    basis set group =>   2
Atom 116C    basis set group =>   2
Atom 117N    basis set group =>   3
Atom 118H    basis set group =>   4
Atom 119H    basis set group =>   4
Atom 120H    basis set group =>   4
---------------------------------
AUXILIARY/J BASIS SET INFORMATION
---------------------------------
There are 4 groups of distinct atoms

 Group   1 Type Ca  : 19s5p5d3f1g contracted to 8s4p4d1f1g pattern {121111111/2111/2111/3/1}
 Group   2 Type C   : 12s5p4d2f1g contracted to 6s4p3d1f1g pattern {711111/2111/211/2/1}
 Group   3 Type N   : 12s5p4d2f1g contracted to 6s4p3d1f1g pattern {711111/2111/211/2/1}
 Group   4 Type H   : 5s2p1d contracted to 3s1p1d pattern {311/2/1}

Atom   0Ca   basis set group =>   1
Atom   1C    basis set group =>   2
Atom   2C    basis set group =>   2
Atom   3N    basis set group =>   3
Atom   4H    basis set group =>   4
Atom   5H    basis set group =>   4
Atom   6H    basis set group =>   4
Atom   7C    basis set group =>   2
Atom   8C    basis set group =>   2
Atom   9N    basis set group =>   3
Atom  10H    basis set group =>   4
Atom  11H    basis set group =>   4
Atom  12H    basis set group =>   4
Atom  13C    basis set group =>   2
Atom  14C    basis set group =>   2
Atom  15N    basis set group =>   3
Atom  16H    basis set group =>   4
Atom  17H    basis set group =>   4
Atom  18H    basis set group =>   4
Atom  19C    basis set group =>   2
Atom  20C    basis set group =>   2
Atom  21N    basis set group =>   3
Atom  22H    basis set group =>   4
Atom  23H    basis set group =>   4
Atom  24H    basis set group =>   4
Atom  25C    basis set group =>   2
Atom  26C    basis set group =>   2
Atom  27N    basis set group =>   3
Atom  28H    basis set group =>   4
Atom  29H    basis set group =>   4
Atom  30H    basis set group =>   4
Atom  31C    basis set group =>   2
Atom  32C    basis set group =>   2
Atom  33N    basis set group =>   3
Atom  34H    basis set group =>   4
Atom  35H    basis set group =>   4
Atom  36H    basis set group =>   4
Atom  37C    basis set group =>   2
Atom  38C    basis set group =>   2
Atom  39N    basis set group =>   3
Atom  40H    basis set group =>   4
Atom  41H    basis set group =>   4
Atom  42H    basis set group =>   4
Atom  43C    basis set group =>   2
Atom  44C    basis set group =>   2
Atom  45N    basis set group =>   3
Atom  46H    basis set group =>   4
Atom  47H    basis set group =>   4
Atom  48H    basis set group =>   4
Atom  49C    basis set group =>   2
Atom  50C    basis set group =>   2
Atom  51N    basis set group =>   3
Atom  52H    basis set group =>   4
Atom  53H    basis set group =>   4
Atom  54H    basis set group =>   4
Atom  55C    basis set group =>   2
Atom  56C    basis set group =>   2
Atom  57N    basis set group =>   3
Atom  58H    basis set group =>   4
Atom  59H    basis set group =>   4
Atom  60H    basis set group =>   4
Atom  61C    basis set group =>   2
Atom  62C    basis set group =>   2
Atom  63N    basis set group =>   3
Atom  64H    basis set group =>   4
Atom  65H    basis set group =>   4
Atom  66H    basis set group =>   4
Atom  67C    basis set group =>   2
Atom  68C    basis set group =>   2
Atom  69N    basis set group =>   3
Atom  70H    basis set group =>   4
Atom  71H    basis set group =>   4
Atom  72H    basis set group =>   4
Atom  73C    basis set group =>   2
Atom  74C    basis set group =>   2
Atom  75N    basis set group =>   3
Atom  76H    basis set group =>   4
Atom  77H    basis set group =>   4
Atom  78H    basis set group =>   4
Atom  79C    basis set group =>   2
Atom  80C    basis set group =>   2
Atom  81N    basis set group =>   3
Atom  82H    basis set group =>   4
Atom  83H    basis set group =>   4
Atom  84H    basis set group =>   4
Atom  85C    basis set group =>   2
Atom  86C    basis set group =>   2
Atom  87N    basis set group =>   3
Atom  88H    basis set group =>   4
Atom  89H    basis set group =>   4
Atom  90H    basis set group =>   4
Atom  91C    basis set group =>   2
Atom  92C    basis set group =>   2
Atom  93N    basis set group =>   3
Atom  94H    basis set group =>   4
Atom  95H    basis set group =>   4
Atom  96H    basis set group =>   4
Atom  97C    basis set group =>   2
Atom  98C    basis set group =>   2
Atom  99N    basis set group =>   3
Atom 100H    basis set group =>   4
Atom 101H    basis set group =>   4
Atom 102H    basis set group =>   4
Atom 103C    basis set group =>   2
Atom 104C    basis set group =>   2
Atom 105N    basis set group =>   3
Atom 106H    basis set group =>   4
Atom 107H    basis set group =>   4
Atom 108H    basis set group =>   4
Atom 109C    basis set group =>   2
Atom 110C    basis set group =>   2
Atom 111N    basis set group =>   3
Atom 112H    basis set group =>   4
Atom 113H    basis set group =>   4
Atom 114H    basis set group =>   4
Atom 115C    basis set group =>   2
Atom 116C    basis set group =>   2
Atom 117N    basis set group =>   3
Atom 118H    basis set group =>   4
Atom 119H    basis set group =>   4
Atom 120H    basis set group =>   4


           ************************************************************
           *        Program running with 8 parallel MPI-processes     *
           *              working on a common directory               *
           ************************************************************
------------------------------------------------------------------------------
                           ORCA GTO INTEGRAL CALCULATION
                           -- RI-GTO INTEGRALS CHOSEN --
------------------------------------------------------------------------------
------------------------------------------------------------------------------
                   ___                                                        
                  /   \      - P O W E R E D   B Y -                         
                 /     \                                                     
                 |  |  |   _    _      __       _____    __    __             
                 |  |  |  | |  | |    /  \     |  _  \  |  |  /  |          
                  \  \/   | |  | |   /    \    | | | |  |  | /  /          
                 / \  \   | |__| |  /  /\  \   | |_| |  |  |/  /          
                |  |  |   |  __  | /  /__\  \  |    /   |      \           
                |  |  |   | |  | | |   __   |  |    \   |  |\   \          
                \     /   | |  | | |  |  |  |  | |\  \  |  | \   \       
                 \___/    |_|  |_| |__|  |__|  |_| \__\ |__|  \__/        
                                                                              
                      - O R C A' S   B I G   F R I E N D -                    
                                      &                                       
                       - I N T E G R A L  F E E D E R -                       
                                                                              
 v1 FN, 2020, v2 2021                                                         
------------------------------------------------------------------------------


Reading SHARK input file ORCA.SHARKINP.tmp ... ok
----------------------
SHARK INTEGRAL PACKAGE
----------------------

Number of atoms                             ...    121
Number of basis functions                   ...   1568
Number of shells                            ...    752
Maximum angular momentum                    ...      2
Integral batch strategy                     ... SHARK/LIBINT Hybrid
RI-J (if used) integral strategy            ... SPLIT-RIJ (Revised 2003 algorithm where possible)
Printlevel                                  ...      1
Contraction scheme used                     ... SEGMENTED contraction
Coulomb Range Separation                    ... NOT USED
Exchange Range Separation                   ... NOT USED
Finite Nucleus Model                        ... NOT USED
Auxiliary Coulomb fitting basis             ... AVAILABLE
   # of basis functions in Aux-J            ...   3656
   # of shells in Aux-J                     ...   1218
   Maximum angular momentum in Aux-J        ...      4
Auxiliary J/K fitting basis                 ... NOT available
Auxiliary Correlation fitting basis         ... NOT available
Auxiliary 'external' fitting basis          ... NOT available
Integral threshold                          ...     2.500000e-11
Primitive cut-off                           ...     2.500000e-12
Primitive pair pre-selection threshold      ...     2.500000e-12

Calculating pre-screening integrals         ... done (  0.3 sec) Dimension = 752
Organizing shell pair data                  ... done (  0.9 sec)
Shell pair information
Total number of shell pairs                 ...    283128
Shell pairs after pre-screening             ...     94696
Total number of primitive shell pairs       ...   1027584
Primitive shell pairs kept                  ...    185584
          la=0 lb=0:  28040 shell pairs
          la=1 lb=0:  35934 shell pairs
          la=1 lb=1:  11624 shell pairs
          la=2 lb=0:  10854 shell pairs
          la=2 lb=1:   7144 shell pairs
          la=2 lb=2:   1100 shell pairs

Calculating one electron integrals          ... done (  0.6 sec)
Calculating RI/J V-Matrix + Cholesky decomp.... done (  8.0 sec)
Calculating Nuclear repulsion               ... done (  0.0 sec) ENN=   8491.937734162006 Eh

SHARK setup successfully completed in  11.3 seconds

Maximum memory used throughout the entire GTOINT-calculation: 162.4 MB


           ************************************************************
           *        Program running with 8 parallel MPI-processes     *
           *              working on a common directory               *
           ************************************************************
-------------------------------------------------------------------------------
                                 ORCA SCF
-------------------------------------------------------------------------------

------------
SCF SETTINGS
------------
Hamiltonian:
 Density Functional     Method          .... DFT(GTOs)
  Functional kind                       .... Exchange
  Functional name                       .... Re-regularized SCAN exchange by Furness et al
  Functional family                     .... MGGA
  Functional refs                              
    [ 0] J. W. Furness, A. D. Kaplan, J. Ning, J. P. Perdew, and J. Sun, J. Phys. Chem. Lett. 11, 8208 (2020)
    [ 1] J. W. Furness, A. D. Kaplan, J. Ning, J. P. Perdew, and J. Sun, J. Phys. Chem. Lett. 11, 9248 (2020)
  Functional external parameters         .... 8
 Parameter  0 :         c1 parameter
 Parameter  1 :         c2 parameter
 Parameter  2 :          d parameter
 Parameter  3 :         k1 parameter
 Parameter  4 :       taur parameter
 Parameter  5 :     alphar parameter
 Parameter  6 :        eta parameter
 Parameter  7 :        dp2 parameter
  Functional kind                       .... Correlation
  Functional name                       .... Re-regularized SCAN correlation by Furness et al
  Functional family                     .... MGGA
  Functional refs                              
    [ 0] J. W. Furness, A. D. Kaplan, J. Ning, J. P. Perdew, and J. Sun, J. Phys. Chem. Lett. 11, 8208 (2020)
    [ 1] J. W. Furness, A. D. Kaplan, J. Ning, J. P. Perdew, and J. Sun, J. Phys. Chem. Lett. 11, 9248 (2020)
  Functional external parameters         .... 0
 Gradients option       PostSCFGGA      .... off
   Density functional embedding theory  .... OFF
 RI-approximation to the Coulomb term is turned on
   Number of AuxJ basis functions       .... 3656


General Settings:
 Integral files         IntName         .... ORCA
 Hartree-Fock type      HFTyp           .... RHF
 Total Charge           Charge          ....    2
 Multiplicity           Mult            ....    1
 Number of Electrons    NEL             ....  458
 Basis Dimension        Dim             .... 1568
 Nuclear Repulsion      ENuc            ....   8491.9377341620 Eh

Convergence Acceleration:
 DIIS                   CNVDIIS         .... on
   Start iteration      DIISMaxIt       ....    12
   Startup error        DIISStart       ....  0.200000
   # of expansion vecs  DIISMaxEq       ....     5
   Bias factor          DIISBfac        ....   1.050
   Max. coefficient     DIISMaxC        ....  10.000
 Trust-Rad. Augm. Hess. CNVTRAH         .... auto
   Auto Start mean grad. ratio tolernc. ....  1.125000
   Auto Start start iteration           ....    20
   Auto Start num. interpolation iter.  ....    10
   Max. Number of Micro iterations      ....    16
   Max. Number of Macro iterations      .... Maxiter - #DIIS iter
   Number of Davidson start vectors     ....     2
   Converg. threshold I  (grad. norm)   ....   1.000e-05
   Converg. threshold II (energy diff.) ....   1.000e-08
   Grad. Scal. Fac. for Micro threshold ....   0.100
   Minimum threshold for Micro iter.    ....   0.010
   NR start threshold (gradient norm)   ....   0.001
   Initial trust radius                 ....   0.400
   Minimum AH scaling param. (alpha)    ....   1.000
   Maximum AH scaling param. (alpha)    .... 1000.000
   Orbital update algorithm             .... Taylor
   White noise on init. David. guess    .... on
   Maximum white noise                  ....   0.010
   Quad. conv. algorithm                .... NR
   COSX micro iterations for RIJONX calc.... off
 SOSCF                  CNVSOSCF        .... on
   Start iteration      SOSCFMaxIt      ....   150
   Startup grad/error   SOSCFStart      ....  0.003300
 Level Shifting         CNVShift        .... on
   Level shift para.    LevelShift      ....    0.2500
   Turn off err/grad.   ShiftErr        ....    0.0010
 Zerner damping         CNVZerner       .... off
 Static damping         CNVDamp         .... on
   Fraction old density DampFac         ....    0.7000
   Max. Damping (<1)    DampMax         ....    0.9800
   Min. Damping (>=0)   DampMin         ....    0.0000
   Turn off err/grad.   DampErr         ....    0.1000
 Fernandez-Rico         CNVRico         .... off

SCF Procedure:
 Maximum # iterations   MaxIter         ....   125
 SCF integral mode      SCFMode         .... Direct
   Integral package                     .... SHARK and LIBINT hybrid scheme
 Reset frequency        DirectResetFreq ....    20
 Integral Threshold     Thresh          ....  2.500e-11 Eh
 Primitive CutOff       TCut            ....  2.500e-12 Eh

Convergence Tolerance:
 Convergence Check Mode ConvCheckMode   .... Total+1el-Energy
 Convergence forced     ConvForced      .... 0
 Energy Change          TolE            ....  1.000e-08 Eh
 1-El. energy change                    ....  1.000e-05 Eh
 Orbital Gradient       TolG            ....  1.000e-05
 Orbital Rotation angle TolX            ....  1.000e-05
 DIIS Error             TolErr          ....  5.000e-07


Diagonalization of the overlap matrix:
Smallest eigenvalue                        ... 9.313e-05
Time for diagonalization                   ...   95.422 sec
Threshold for overlap eigenvalues          ... 1.000e-08
Number of eigenvalues below threshold      ... 0
Time for construction of square roots      ...    3.858 sec
Total time needed                          ...   99.454 sec

Time for model grid setup =    6.623 sec

------------------------------
INITIAL GUESS: MODEL POTENTIAL
------------------------------
Loading Hartree-Fock densities                     ... done
Calculating cut-offs                               ... done
Initializing the effective Hamiltonian             ... done
Setting up the integral package (SHARK)            ... done
Starting the Coulomb interaction                   ... done (   5.4 sec)
Reading the grid                                   ... done
Mapping shells                                     ... done
Starting the XC term evaluation                    ... done (   1.1 sec)
  promolecular density results
     # of electrons  =    459.970243358
     EX              =   -386.966316038
     EC              =    -14.849854889
     EX+EC           =   -401.816170926
Transforming the Hamiltonian                       ... done (   3.3 sec)
Diagonalizing the Hamiltonian                      ... done (  48.9 sec)
Back transforming the eigenvectors                 ... done (  16.5 sec)
Now organizing SCF variables                       ... done
                      ------------------
                      INITIAL GUESS DONE (  82.2 sec)
                      ------------------
-------------------
DFT GRID GENERATION
-------------------

General Integration Accuracy     IntAcc      ... 4.959
Radial Grid Type                 RadialGrid  ... OptM3 with GC (2021)
Angular Grid (max. ang.)         AngularGrid ... 6 (Lebedev-590)
Angular grid pruning method      GridPruning ... 4 (adaptive)
Weight generation scheme         WeightScheme... Becke
Basis function cutoff            BFCut       ... 1.0000e-11
Integration weight cutoff        WCut        ... 1.0000e-14
Angular grids for H and He will be reduced by one unit
Partially contracted basis set               ... off
Rotationally invariant grid construction     ... off

Total number of grid points                  ...  1400487
Total number of batches                      ...    21935
Average number of points per batch           ...       63
Average number of grid points per atom       ...    11574
Time for grid setup =   64.237 sec


--------------------
CPCM SOLVATION MODEL
--------------------
CPCM parameters:
  Epsilon                                         ...      35.6880
  Refrac                                          ...       1.3442
  Rsolv                                           ...       1.3000
  Surface type                                    ... GAUSSIAN VDW
  Epsilon function type                           ...         CPCM
Solvent:                                     ... MECN
SMD-CDS solvent descriptors:
  Soln                                       ...    1.3442
  Soln25                                     ...    1.3416
  Sola                                       ...    0.0700
  Solb                                       ...    0.3200
  Solg                                       ...   41.2500
  Solc                                       ...    0.0000
  Solh                                       ...    0.0000
Radii:
 Radius for Ca used is    4.3653 Bohr (=   2.3100 Ang.)
 Radius for C  used is    3.4960 Bohr (=   1.8500 Ang.)
 Radius for N  used is    3.5716 Bohr (=   1.8900 Ang.)
 Radius for H  used is    2.2677 Bohr (=   1.2000 Ang.)
Calculating surface                               ...        done! (  0.0s)
GEPOL surface points                              ...         7990
GEPOL Volume                                      ...    7366.7703
GEPOL Surface-area                                ...    4542.5484
Calculating surface distance matrix               ...        done! (  0.5s)
Performing Cholesky decomposition & store         ...        done! ( 55.8s)
Overall time for CPCM initialization              ...                56.4s
--------------
SCF ITERATIONS
--------------
ITER       Energy         Delta-E        Max-DP      RMS-DP      [F,P]     Damp
               ***  Starting incremental Fock matrix formation  ***
  0  -3329.7958104111   0.000000000000 0.05603154  0.00054844  0.3158080 0.7000
  1  -3330.9346315069  -1.138821095821 0.03046906  0.00035587  0.0976810 0.7000
                               ***Turning on DIIS***
  2  -3331.2739567872  -0.339325280324 0.06335777  0.00057393  0.0513996 0.0000
  3  -3331.9446085336  -0.670651746366 0.01957124  0.00029352  0.0466827 0.0000
  4  -3332.0385466214  -0.093938087877 0.00960049  0.00011267  0.0435608 0.0000
  5  -3332.0672342041  -0.028687582681 0.00297779  0.00003530  0.0090047 0.0000
  6  -3332.0689016026  -0.001667398502 0.00142823  0.00001283  0.0045947 0.0000
                      *** Initiating the SOSCF procedure ***
                           *** Shutting down DIIS ***
                      *** Re-Reading the Fockian *** 
                      *** Removing any level shift *** 
ITER      Energy       Delta-E        Grad      Rot      Max-DP    RMS-DP
  7  -3332.06907455  -0.0001729464  0.000157  0.000157  0.000629  0.000005
               *** Restarting incremental Fock matrix formation ***
  8  -3332.06910566  -0.0000311143  0.000117  0.000363  0.000361  0.000004
  9  -3332.06909487   0.0000107944  0.000381  0.000314  0.000296  0.000002
 10  -3332.06910777  -0.0000129048  0.000031  0.000051  0.000082  0.000001
 11  -3332.06910726   0.0000005159  0.000032  0.000028  0.000051  0.000001
 12  -3332.06910812  -0.0000008573  0.000007  0.000021  0.000037  0.000000
 13  -3332.06910805   0.0000000602  0.000018  0.000015  0.000021  0.000000
                  ***Gradient check signals convergence***
              ***Rediagonalizing the Fockian in SOSCF/NRSCF***

               *****************************************************
               *                     SUCCESS                       *
               *           SCF CONVERGED AFTER  14 CYCLES          *
               *****************************************************


SMD CDS free energy correction energy :                 8.02903     Kcal/mol
Total Energy after SMD CDS correction =             -3332.056312955 Eh

----------------
TOTAL SCF ENERGY
----------------

Total Energy       :        -3332.05631296 Eh          -90669.86184 eV

Components:
Nuclear Repulsion  :         8491.93773416 Eh          231077.37349 eV
Electronic Energy  :       -11823.99404712 Eh         -321747.23534 eV
One Electron Energy:       -21395.42316663 Eh         -582199.06279 eV
Two Electron Energy:         9571.42911951 Eh          260451.82746 eV
CPCM Dielectric    :           -0.23990907 Eh              -6.52826 eV
SMD CDS (Gcds)     :            0.01279508 Eh               0.34817 eV

Virial components:
Potential Energy   :        -6653.08716504 Eh         -181039.70564 eV
Kinetic Energy     :         3321.03085208 Eh           90369.84380 eV
Virial Ratio       :            2.00331989


DFT components:
N(Alpha)           :      229.000104145555 electrons
N(Beta)            :      229.000104145555 electrons
N(Total)           :      458.000208291109 electrons
E(X)               :     -396.642237061238 Eh       
E(C)               :      -14.587967405362 Eh       
E(XC)              :     -411.230204466600 Eh       
DFET-embed. en.    :        0.000000000000 Eh       
CPCM Solvation Model Properties:
Surface-charge          :           -2.07273665
Charge-correction       :            0.00816891 Eh               0.22229 eV
Free-energy (cav+disp)  :            0.01279508 Eh               0.34817 eV

---------------
SCF CONVERGENCE
---------------

  Last Energy change         ...    2.3806e-08  Tolerance :   1.0000e-08
  Last MAX-Density change    ...    4.6257e-05  Tolerance :   1.0000e-07
  Last RMS-Density change    ...    2.0424e-07  Tolerance :   5.0000e-09
  Last Orbital Gradient      ...    2.5654e-07  Tolerance :   1.0000e-05
  Last Orbital Rotation      ...    4.2903e-07  Tolerance :   1.0000e-05

             **** THE GBW FILE WAS UPDATED (ORCA.gbw) ****
             **** DENSITY ORCA.scfp WAS UPDATED ****
             **** ENERGY FILE WAS UPDATED (ORCA.en.tmp) ****
             **** THE GBW FILE WAS UPDATED (ORCA.gbw) ****
             **** DENSITY ORCA.scfp WAS UPDATED ****
----------------
ORBITAL ENERGIES
----------------

  NO   OCC          E(Eh)            E(eV) 
   0   2.0000    -144.884400     -3942.5050 
   1   2.0000     -15.190031      -413.3418 
   2   2.0000     -14.168926      -385.5561 
   3   2.0000     -14.166562      -385.4918 
   4   2.0000     -14.166207      -385.4821 
   5   2.0000     -14.164909      -385.4468 
   6   2.0000     -14.164142      -385.4259 
   7   2.0000     -14.163772      -385.4158 
   8   2.0000     -14.163327      -385.4037 
   9   2.0000     -14.162308      -385.3760 
  10   2.0000     -14.162078      -385.3697 
  11   2.0000     -14.161969      -385.3668 
  12   2.0000     -14.161647      -385.3580 
  13   2.0000     -14.160581      -385.3290 
  14   2.0000     -14.160507      -385.3270 
  15   2.0000     -14.160352      -385.3228 
  16   2.0000     -14.160147      -385.3172 
  17   2.0000     -14.159805      -385.3079 
  18   2.0000     -14.159721      -385.3056 
  19   2.0000     -14.159643      -385.3035 
  20   2.0000     -14.159538      -385.3006 
  21   2.0000     -14.157905      -385.2562 
  22   2.0000     -12.306445      -334.8754 
  23   2.0000     -12.306334      -334.8724 
  24   2.0000     -12.306205      -334.8689 
  25   2.0000     -10.096980      -274.7528 
  26   2.0000     -10.094627      -274.6888 
  27   2.0000     -10.094365      -274.6816 
  28   2.0000     -10.092792      -274.6388 
  29   2.0000     -10.091943      -274.6157 
  30   2.0000     -10.091286      -274.5978 
  31   2.0000     -10.088670      -274.5267 
  32   2.0000     -10.086693      -274.4729 
  33   2.0000     -10.086445      -274.4661 
  34   2.0000     -10.086311      -274.4625 
  35   2.0000     -10.086250      -274.4608 
  36   2.0000     -10.085216      -274.4327 
  37   2.0000     -10.085065      -274.4286 
  38   2.0000     -10.084661      -274.4176 
  39   2.0000     -10.084618      -274.4164 
  40   2.0000     -10.084251      -274.4064 
  41   2.0000     -10.084124      -274.4030 
  42   2.0000     -10.084094      -274.4022 
  43   2.0000     -10.083582      -274.3882 
  44   2.0000     -10.080754      -274.3113 
  45   2.0000     -10.066959      -273.9359 
  46   2.0000     -10.064021      -273.8559 
  47   2.0000     -10.063962      -273.8543 
  48   2.0000     -10.063869      -273.8518 
  49   2.0000     -10.063327      -273.8370 
  50   2.0000     -10.060924      -273.7717 
  51   2.0000     -10.059982      -273.7460 
  52   2.0000     -10.059694      -273.7382 
  53   2.0000     -10.059392      -273.7300 
  54   2.0000     -10.059205      -273.7249 
  55   2.0000     -10.058870      -273.7158 
  56   2.0000     -10.058806      -273.7140 
  57   2.0000     -10.058531      -273.7065 
  58   2.0000     -10.058166      -273.6966 
  59   2.0000     -10.058032      -273.6930 
  60   2.0000     -10.057270      -273.6722 
  61   2.0000     -10.056975      -273.6642 
  62   2.0000     -10.056136      -273.6414 
  63   2.0000     -10.055959      -273.6365 
  64   2.0000     -10.055001      -273.6105 
  65   2.0000      -1.642671       -44.6994 
  66   2.0000      -0.938226       -25.5304 
  67   2.0000      -0.936863       -25.4933 
  68   2.0000      -0.935666       -25.4608 
  69   2.0000      -0.899915       -24.4879 
  70   2.0000      -0.896383       -24.3918 
  71   2.0000      -0.893430       -24.3115 
  72   2.0000      -0.892922       -24.2977 
  73   2.0000      -0.892226       -24.2787 
  74   2.0000      -0.890604       -24.2346 
  75   2.0000      -0.890205       -24.2237 
  76   2.0000      -0.889570       -24.2064 
  77   2.0000      -0.889522       -24.2051 
  78   2.0000      -0.889127       -24.1944 
  79   2.0000      -0.889118       -24.1941 
  80   2.0000      -0.888252       -24.1706 
  81   2.0000      -0.887796       -24.1581 
  82   2.0000      -0.887759       -24.1572 
  83   2.0000      -0.887598       -24.1528 
  84   2.0000      -0.887294       -24.1445 
  85   2.0000      -0.887178       -24.1414 
  86   2.0000      -0.887025       -24.1372 
  87   2.0000      -0.886710       -24.1286 
  88   2.0000      -0.883793       -24.0492 
  89   2.0000      -0.742493       -20.2043 
  90   2.0000      -0.739718       -20.1288 
  91   2.0000      -0.739485       -20.1224 
  92   2.0000      -0.739376       -20.1195 
  93   2.0000      -0.738726       -20.1018 
  94   2.0000      -0.738286       -20.0898 
  95   2.0000      -0.738241       -20.0886 
  96   2.0000      -0.738046       -20.0833 
  97   2.0000      -0.737460       -20.0673 
  98   2.0000      -0.737322       -20.0635 
  99   2.0000      -0.737129       -20.0583 
 100   2.0000      -0.736956       -20.0536 
 101   2.0000      -0.736386       -20.0381 
 102   2.0000      -0.736079       -20.0297 
 103   2.0000      -0.736005       -20.0277 
 104   2.0000      -0.735562       -20.0157 
 105   2.0000      -0.735508       -20.0142 
 106   2.0000      -0.735138       -20.0041 
 107   2.0000      -0.734535       -19.9877 
 108   2.0000      -0.734059       -19.9748 
 109   2.0000      -0.485027       -13.1983 
 110   2.0000      -0.481187       -13.0938 
 111   2.0000      -0.480088       -13.0638 
 112   2.0000      -0.479740       -13.0544 
 113   2.0000      -0.479384       -13.0447 
 114   2.0000      -0.478933       -13.0324 
 115   2.0000      -0.478141       -13.0109 
 116   2.0000      -0.477518       -12.9939 
 117   2.0000      -0.477367       -12.9898 
 118   2.0000      -0.476478       -12.9656 
 119   2.0000      -0.475682       -12.9440 
 120   2.0000      -0.475071       -12.9273 
 121   2.0000      -0.474651       -12.9159 
 122   2.0000      -0.474305       -12.9065 
 123   2.0000      -0.473334       -12.8801 
 124   2.0000      -0.473050       -12.8723 
 125   2.0000      -0.472298       -12.8519 
 126   2.0000      -0.471836       -12.8393 
 127   2.0000      -0.471399       -12.8274 
 128   2.0000      -0.470543       -12.8041 
 129   2.0000      -0.429789       -11.6951 
 130   2.0000      -0.429536       -11.6883 
 131   2.0000      -0.428966       -11.6728 
 132   2.0000      -0.427986       -11.6461 
 133   2.0000      -0.426420       -11.6035 
 134   2.0000      -0.426275       -11.5995 
 135   2.0000      -0.425819       -11.5871 
 136   2.0000      -0.425785       -11.5862 
 137   2.0000      -0.425547       -11.5797 
 138   2.0000      -0.425506       -11.5786 
 139   2.0000      -0.425238       -11.5713 
 140   2.0000      -0.424785       -11.5590 
 141   2.0000      -0.424300       -11.5458 
 142   2.0000      -0.424066       -11.5394 
 143   2.0000      -0.424047       -11.5389 
 144   2.0000      -0.423789       -11.5319 
 145   2.0000      -0.423528       -11.5248 
 146   2.0000      -0.423123       -11.5138 
 147   2.0000      -0.422806       -11.5051 
 148   2.0000      -0.422669       -11.5014 
 149   2.0000      -0.422665       -11.5013 
 150   2.0000      -0.422610       -11.4998 
 151   2.0000      -0.422147       -11.4872 
 152   2.0000      -0.422109       -11.4862 
 153   2.0000      -0.421830       -11.4786 
 154   2.0000      -0.421478       -11.4690 
 155   2.0000      -0.421371       -11.4661 
 156   2.0000      -0.421346       -11.4654 
 157   2.0000      -0.420964       -11.4550 
 158   2.0000      -0.420416       -11.4401 
 159   2.0000      -0.420124       -11.4322 
 160   2.0000      -0.419946       -11.4273 
 161   2.0000      -0.419393       -11.4123 
 162   2.0000      -0.418194       -11.3796 
 163   2.0000      -0.417681       -11.3657 
 164   2.0000      -0.417452       -11.3595 
 165   2.0000      -0.416383       -11.3304 
 166   2.0000      -0.416220       -11.3259 
 167   2.0000      -0.415915       -11.3176 
 168   2.0000      -0.415273       -11.3001 
 169   2.0000      -0.409470       -11.1423 
 170   2.0000      -0.379509       -10.3270 
 171   2.0000      -0.378624       -10.3029 
 172   2.0000      -0.377216       -10.2646 
 173   2.0000      -0.375597       -10.2205 
 174   2.0000      -0.367141        -9.9904 
 175   2.0000      -0.361572        -9.8389 
 176   2.0000      -0.360199        -9.8015 
 177   2.0000      -0.352561        -9.5937 
 178   2.0000      -0.351373        -9.5613 
 179   2.0000      -0.350819        -9.5463 
 180   2.0000      -0.350404        -9.5350 
 181   2.0000      -0.349438        -9.5087 
 182   2.0000      -0.348540        -9.4842 
 183   2.0000      -0.348187        -9.4746 
 184   2.0000      -0.348051        -9.4710 
 185   2.0000      -0.346850        -9.4383 
 186   2.0000      -0.346371        -9.4252 
 187   2.0000      -0.345341        -9.3972 
 188   2.0000      -0.344643        -9.3782 
 189   2.0000      -0.330461        -8.9923 
 190   2.0000      -0.326565        -8.8863 
 191   2.0000      -0.325856        -8.8670 
 192   2.0000      -0.323347        -8.7987 
 193   2.0000      -0.322014        -8.7625 
 194   2.0000      -0.321293        -8.7428 
 195   2.0000      -0.319676        -8.6988 
 196   2.0000      -0.319220        -8.6864 
 197   2.0000      -0.318776        -8.6743 
 198   2.0000      -0.318530        -8.6676 
 199   2.0000      -0.316886        -8.6229 
 200   2.0000      -0.315917        -8.5965 
 201   2.0000      -0.315245        -8.5782 
 202   2.0000      -0.315072        -8.5735 
 203   2.0000      -0.314675        -8.5627 
 204   2.0000      -0.314453        -8.5567 
 205   2.0000      -0.313681        -8.5357 
 206   2.0000      -0.313536        -8.5318 
 207   2.0000      -0.313418        -8.5285 
 208   2.0000      -0.313293        -8.5251 
 209   2.0000      -0.313157        -8.5214 
 210   2.0000      -0.312523        -8.5042 
 211   2.0000      -0.312216        -8.4958 
 212   2.0000      -0.311185        -8.4678 
 213   2.0000      -0.310264        -8.4427 
 214   2.0000      -0.309628        -8.4254 
 215   2.0000      -0.308884        -8.4051 
 216   2.0000      -0.308558        -8.3963 
 217   2.0000      -0.307498        -8.3674 
 218   2.0000      -0.307103        -8.3567 
 219   2.0000      -0.307057        -8.3554 
 220   2.0000      -0.306912        -8.3515 
 221   2.0000      -0.306040        -8.3278 
 222   2.0000      -0.305202        -8.3050 
 223   2.0000      -0.304927        -8.2975 
[...]
      dxz     :     0.044213
      dyz     :     0.073161
      dx2y2   :     0.044609
      dxy     :     0.048714
106 H s       :     0.744358  s :     0.744358
      pz      :     0.007375  p :     0.046834
      px      :     0.019599
      py      :     0.019859
107 H s       :     0.728668  s :     0.728668
      pz      :     0.010386  p :     0.051397
      px      :     0.028424
      py      :     0.012587
108 H s       :     0.751665  s :     0.751665
      pz      :     0.025966  p :     0.045150
      px      :     0.008877
      py      :     0.010307
109 C s       :     2.944100  s :     2.944100
      pz      :     1.146124  p :     3.345057
      px      :     1.028722
      py      :     1.170211
      dz2     :     0.009293  d :     0.061864
      dxz     :     0.013952
      dyz     :     0.011505
      dx2y2   :     0.017433
      dxy     :     0.009682
110 C s       :     2.853189  s :     2.853189
      pz      :     0.847645  p :     2.786756
      px      :     1.119819
      py      :     0.819292
      dz2     :     0.013757  d :     0.108882
      dxz     :     0.032199
      dyz     :     0.004385
      dx2y2   :     0.026286
      dxy     :     0.032255
111 N s       :     3.319775  s :     3.319775
      pz      :     1.177267  p :     3.759815
      px      :     1.429348
      py      :     1.153200
      dz2     :     0.036712  d :     0.275895
      dxz     :     0.083786
      dyz     :     0.019065
      dx2y2   :     0.080464
      dxy     :     0.055868
112 H s       :     0.751526  s :     0.751526
      pz      :     0.019297  p :     0.045144
      px      :     0.013532
      py      :     0.012315
113 H s       :     0.726434  s :     0.726434
      pz      :     0.009011  p :     0.052512
      px      :     0.010547
      py      :     0.032954
114 H s       :     0.751776  s :     0.751776
      pz      :     0.022854  p :     0.045129
      px      :     0.006488
      py      :     0.015786
115 C s       :     2.947097  s :     2.947097
      pz      :     1.134709  p :     3.347764
      px      :     1.099486
      py      :     1.113569
      dz2     :     0.007893  d :     0.062356
      dxz     :     0.016970
      dyz     :     0.011981
      dx2y2   :     0.008415
      dxy     :     0.017097
116 C s       :     2.875484  s :     2.875484
      pz      :     0.902529  p :     2.853940
      px      :     0.989567
      py      :     0.961845
      dz2     :     0.017490  d :     0.106812
      dxz     :     0.020104
      dyz     :     0.017521
      dx2y2   :     0.028020
      dxy     :     0.023676
117 N s       :     3.412471  s :     3.412471
      pz      :     1.221201  p :     3.810579
      px      :     1.309088
      py      :     1.280290
      dz2     :     0.025258  d :     0.189470
      dxz     :     0.036776
      dyz     :     0.034213
      dx2y2   :     0.035212
      dxy     :     0.058012
118 H s       :     0.754017  s :     0.754017
      pz      :     0.022911  p :     0.044955
      px      :     0.010279
      py      :     0.011764
119 H s       :     0.753753  s :     0.753753
      pz      :     0.016394  p :     0.044931
      px      :     0.020077
      py      :     0.008460
120 H s       :     0.738287  s :     0.738287
      pz      :     0.009210  p :     0.049306
      px      :     0.012577
      py      :     0.027519


                      *****************************
                      * MAYER POPULATION ANALYSIS *
                      *****************************

  NA   - Mulliken gross atomic population
  ZA   - Total nuclear charge
  QA   - Mulliken gross atomic charge
  VA   - Mayer's total valence
  BVA  - Mayer's bonded valence
  FA   - Mayer's free valence

  ATOM       NA         ZA         QA         VA         BVA        FA
  0 Ca    18.4191    20.0000     1.5809     0.8054     0.8054     0.0000
  1 C      6.6590     6.0000    -0.6590     3.7617     3.7617    -0.0000
  2 C      5.6442     6.0000     0.3558     3.5728     3.5728    -0.0000
  3 N      7.3266     7.0000    -0.3266     2.6841     2.6841    -0.0000
  4 H      0.7635     1.0000     0.2365     0.9345     0.9345     0.0000
  5 H      0.7803     1.0000     0.2197     0.9431     0.9431    -0.0000
  6 H      0.7857     1.0000     0.2143     0.9398     0.9398    -0.0000
  7 C      6.6128     6.0000    -0.6128     3.7534     3.7534    -0.0000
  8 C      5.6762     6.0000     0.3238     3.6098     3.6098     0.0000
  9 N      7.3460     7.0000    -0.3460     2.6080     2.6080     0.0000
 10 H      0.7835     1.0000     0.2165     0.9392     0.9392    -0.0000
 11 H      0.7830     1.0000     0.2170     0.9392     0.9392    -0.0000
 12 H      0.7832     1.0000     0.2168     0.9391     0.9391    -0.0000
 13 C      6.5834     6.0000    -0.5834     3.8371     3.8371    -0.0000
 14 C      5.6967     6.0000     0.3033     3.7975     3.7975    -0.0000
 15 N      7.3761     7.0000    -0.3761     2.9396     2.9396     0.0000
 16 H      0.7876     1.0000     0.2124     0.9394     0.9394     0.0000
 17 H      0.7809     1.0000     0.2191     0.9405     0.9405    -0.0000
 18 H      0.7851     1.0000     0.2149     0.9423     0.9423     0.0000
 19 C      6.6370     6.0000    -0.6370     3.7523     3.7523    -0.0000
 20 C      5.6626     6.0000     0.3374     3.5540     3.5540     0.0000
 21 N      7.3404     7.0000    -0.3404     2.5579     2.5579    -0.0000
 22 H      0.7860     1.0000     0.2140     0.9405     0.9405    -0.0000
 23 H      0.7862     1.0000     0.2138     0.9405     0.9405    -0.0000
 24 H      0.7616     1.0000     0.2384     0.9327     0.9327    -0.0000
 25 C      6.6573     6.0000    -0.6573     3.7549     3.7549     0.0000
 26 C      5.6423     6.0000     0.3577     3.5545     3.5545     0.0000
 27 N      7.3327     7.0000    -0.3327     2.6585     2.6585     0.0000
 28 H      0.7632     1.0000     0.2368     0.9329     0.9329    -0.0000
 29 H      0.7797     1.0000     0.2203     0.9432     0.9432     0.0000
 30 H      0.7847     1.0000     0.2153     0.9399     0.9399     0.0000
 31 C      6.5907     6.0000    -0.5907     3.7775     3.7775     0.0000
 32 C      5.6659     6.0000     0.3341     3.6803     3.6803     0.0000
 33 N      7.3827     7.0000    -0.3827     2.8563     2.8563    -0.0000
 34 H      0.7762     1.0000     0.2238     0.9422     0.9422     0.0000
 35 H      0.7876     1.0000     0.2124     0.9408     0.9408     0.0000
 36 H      0.7880     1.0000     0.2120     0.9408     0.9408    -0.0000
 37 C      6.5929     6.0000    -0.5929     3.7767     3.7767     0.0000
 38 C      5.6601     6.0000     0.3399     3.6612     3.6612     0.0000
 39 N      7.3856     7.0000    -0.3856     2.8436     2.8436     0.0000
 40 H      0.7878     1.0000     0.2122     0.9407     0.9407     0.0000
 41 H      0.7742     1.0000     0.2258     0.9401     0.9401    -0.0000
 42 H      0.7876     1.0000     0.2124     0.9408     0.9408     0.0000
 43 C      6.5773     6.0000    -0.5773     3.7865     3.7865    -0.0000
 44 C      5.6897     6.0000     0.3103     3.7026     3.7026    -0.0000
 45 N      7.3675     7.0000    -0.3675     2.8727     2.8727    -0.0000
 46 H      0.7826     1.0000     0.2174     0.9437     0.9437    -0.0000
 47 H      0.7879     1.0000     0.2121     0.9407     0.9407    -0.0000
 48 H      0.7872     1.0000     0.2128     0.9409     0.9409    -0.0000
 49 C      6.5751     6.0000    -0.5751     3.7885     3.7885    -0.0000
 50 C      5.6641     6.0000     0.3359     3.6769     3.6769     0.0000
 51 N      7.3825     7.0000    -0.3825     2.8491     2.8491     0.0000
 52 H      0.7864     1.0000     0.2136     0.9402     0.9402    -0.0000
 53 H      0.7865     1.0000     0.2135     0.9403     0.9403    -0.0000
 54 H      0.7864     1.0000     0.2136     0.9403     0.9403     0.0000
 55 C      6.5949     6.0000    -0.5949     3.7862     3.7862    -0.0000
 56 C      5.6643     6.0000     0.3357     3.6747     3.6747    -0.0000
 57 N      7.3900     7.0000    -0.3900     2.8557     2.8557     0.0000
 58 H      0.7667     1.0000     0.2333     0.9345     0.9345    -0.0000
 59 H      0.7890     1.0000     0.2110     0.9414     0.9414    -0.0000
 60 H      0.7894     1.0000     0.2106     0.9417     0.9417    -0.0000
 61 C      6.6317     6.0000    -0.6317     3.7583     3.7583    -0.0000
 62 C      5.6464     6.0000     0.3536     3.5359     3.5359     0.0000
 63 N      7.3252     7.0000    -0.3252     2.6862     2.6862     0.0000
 64 H      0.7672     1.0000     0.2328     0.9356     0.9356    -0.0000
 65 H      0.7885     1.0000     0.2115     0.9412     0.9412     0.0000
 66 H      0.7881     1.0000     0.2119     0.9410     0.9410     0.0000
 67 C      6.5924     6.0000    -0.5924     3.7803     3.7803    -0.0000
 68 C      5.6622     6.0000     0.3378     3.6727     3.6727    -0.0000
 69 N      7.3878     7.0000    -0.3878     2.8551     2.8551     0.0000
 70 H      0.7878     1.0000     0.2122     0.9410     0.9410    -0.0000
 71 H      0.7735     1.0000     0.2265     0.9397     0.9397    -0.0000
 72 H      0.7884     1.0000     0.2116     0.9410     0.9410     0.0000
 73 C      6.5849     6.0000    -0.5849     3.7844     3.7844     0.0000
 74 C      5.6800     6.0000     0.3200     3.7183     3.7183     0.0000
 75 N      7.3751     7.0000    -0.3751     2.8874     2.8874     0.0000
 76 H      0.7879     1.0000     0.2121     0.9412     0.9412    -0.0000
 77 H      0.7791     1.0000     0.2209     0.9425     0.9425     0.0000
 78 H      0.7883     1.0000     0.2117     0.9411     0.9411    -0.0000
 79 C      6.5705     6.0000    -0.5705     3.7911     3.7911     0.0000
 80 C      5.6849     6.0000     0.3151     3.7078     3.7078     0.0000
 81 N      7.3694     7.0000    -0.3694     2.8759     2.8759     0.0000
 82 H      0.7873     1.0000     0.2127     0.9405     0.9405     0.0000
 83 H      0.7871     1.0000     0.2129     0.9405     0.9405     0.0000
 84 H      0.7872     1.0000     0.2128     0.9405     0.9405     0.0000
 85 C      6.6187     6.0000    -0.6187     3.7652     3.7652     0.0000
 86 C      5.6523     6.0000     0.3477     3.5850     3.5850    -0.0000
 87 N      7.3191     7.0000    -0.3191     2.7482     2.7482    -0.0000
 88 H      0.7863     1.0000     0.2137     0.9404     0.9404     0.0000
 89 H      0.7754     1.0000     0.2246     0.9405     0.9405     0.0000
 90 H      0.7859     1.0000     0.2141     0.9402     0.9402     0.0000
 91 C      6.5786     6.0000    -0.5786     3.7935     3.7935    -0.0000
 92 C      5.6581     6.0000     0.3419     3.6846     3.6846    -0.0000
 93 N      7.3872     7.0000    -0.3872     2.8552     2.8552    -0.0000
 94 H      0.7863     1.0000     0.2137     0.9399     0.9399    -0.0000
 95 H      0.7861     1.0000     0.2139     0.9399     0.9399    -0.0000
 96 H      0.7863     1.0000     0.2137     0.9401     0.9401    -0.0000
 97 C      6.5779     6.0000    -0.5779     3.7875     3.7875     0.0000
 98 C      5.6576     6.0000     0.3424     3.6742     3.6742    -0.0000
 99 N      7.3846     7.0000    -0.3846     2.8538     2.8538    -0.0000
100 H      0.7868     1.0000     0.2132     0.9404     0.9404     0.0000
101 H      0.7865     1.0000     0.2135     0.9401     0.9401     0.0000
102 H      0.7864     1.0000     0.2136     0.9402     0.9402     0.0000
103 C      6.6326     6.0000    -0.6326     3.7683     3.7683     0.0000
104 C      5.6530     6.0000     0.3470     3.6084     3.6084    -0.0000
105 N      7.3417     7.0000    -0.3417     2.7220     2.7220    -0.0000
106 H      0.7834     1.0000     0.2166     0.9425     0.9425     0.0000
107 H      0.7701     1.0000     0.2299     0.9390     0.9390     0.0000
108 H      0.7860     1.0000     0.2140     0.9410     0.9410    -0.0000
109 C      6.6479     6.0000    -0.6479     3.7439     3.7439    -0.0000
110 C      5.6536     6.0000     0.3464     3.5812     3.5812    -0.0000
111 N      7.3316     7.0000    -0.3316     2.6563     2.6563     0.0000
112 H      0.7854     1.0000     0.2146     0.9402     0.9402    -0.0000
113 H      0.7630     1.0000     0.2370     0.9334     0.9334     0.0000
114 H      0.7857     1.0000     0.2143     0.9402     0.9402    -0.0000
115 C      6.5893     6.0000    -0.5893     3.7726     3.7726     0.0000
116 C      5.6798     6.0000     0.3202     3.6887     3.6887    -0.0000
117 N      7.3699     7.0000    -0.3699     2.8664     2.8664     0.0000
118 H      0.7876     1.0000     0.2124     0.9404     0.9404    -0.0000
119 H      0.7874     1.0000     0.2126     0.9407     0.9407    -0.0000
120 H      0.7783     1.0000     0.2217     0.9425     0.9425     0.0000

  Mayer bond orders larger than 0.100000
B(  0-Ca, 87-N ) :   0.1124 B(  1-C ,  2-C ) :   0.9782 B(  1-C ,  4-H ) :   0.9154 
B(  1-C ,  5-H ) :   0.9306 B(  1-C ,  6-H ) :   0.9486 B(  2-C ,  3-N ) :   2.6113 
B(  7-C ,  8-C ) :   0.9871 B(  7-C , 10-H ) :   0.9413 B(  7-C , 11-H ) :   0.9404 
B(  7-C , 12-H ) :   0.9426 B(  8-C ,  9-N ) :   2.6402 B( 13-C , 14-C ) :   0.9986 
B( 13-C , 16-H ) :   0.9328 B( 13-C , 17-H ) :   0.9201 B( 13-C , 18-H ) :   0.9235 
B( 14-C , 15-N ) :   2.8444 B( 19-C , 20-C ) :   0.9877 B( 19-C , 22-H ) :   0.9445 
B( 19-C , 23-H ) :   0.9445 B( 19-C , 24-H ) :   0.9194 B( 20-C , 21-N ) :   2.5895 
B( 25-C , 26-C ) :   0.9796 B( 25-C , 28-H ) :   0.9225 B( 25-C , 29-H ) :   0.9273 
B( 25-C , 30-H ) :   0.9465 B( 26-C , 27-N ) :   2.5908 B( 31-C , 32-C ) :   0.9673 
B( 31-C , 34-H ) :   0.9211 B( 31-C , 35-H ) :   0.9422 B( 31-C , 36-H ) :   0.9415 
B( 32-C , 33-N ) :   2.7514 B( 37-C , 38-C ) :   0.9660 B( 37-C , 40-H ) :   0.9413 
B( 37-C , 41-H ) :   0.9215 B( 37-C , 42-H ) :   0.9427 B( 38-C , 39-N ) :   2.7325 
B( 43-C , 44-C ) :   0.9683 B( 43-C , 46-H ) :   0.9272 B( 43-C , 47-H ) :   0.9410 
B( 43-C , 48-H ) :   0.9413 B( 44-C , 45-N ) :   2.7804 B( 49-C , 50-C ) :   0.9705 
B( 49-C , 52-H ) :   0.9397 B( 49-C , 53-H ) :   0.9394 B( 49-C , 54-H ) :   0.9400 
B( 50-C , 51-N ) :   2.7424 B( 55-C , 56-C ) :   0.9714 B( 55-C , 58-H ) :   0.9183 
B( 55-C , 59-H ) :   0.9438 B( 55-C , 60-H ) :   0.9430 B( 56-C , 57-N ) :   2.7439 
B( 61-C , 62-C ) :   0.9694 B( 61-C , 64-H ) :   0.9184 B( 61-C , 65-H ) :   0.9465 
B( 61-C , 66-H ) :   0.9476 B( 62-C , 63-N ) :   2.5890 B( 67-C , 68-C ) :   0.9676 
B( 67-C , 70-H ) :   0.9426 B( 67-C , 71-H ) :   0.9220 B( 67-C , 72-H ) :   0.9418 
B( 68-C , 69-N ) :   2.7444 B( 73-C , 74-C ) :   0.9692 B( 73-C , 76-H ) :   0.9425 
B( 73-C , 77-H ) :   0.9232 B( 73-C , 78-H ) :   0.9420 B( 74-C , 75-N ) :   2.7936 
B( 79-C , 80-C ) :   0.9697 B( 79-C , 82-H ) :   0.9399 B( 79-C , 83-H ) :   0.9391 
B( 79-C , 84-H ) :   0.9399 B( 80-C , 81-N ) :   2.7846 B( 85-C , 86-C ) :   0.9709 
B( 85-C , 88-H ) :   0.9446 B( 85-C , 89-H ) :   0.9236 B( 85-C , 90-H ) :   0.9451 
B( 86-C , 87-N ) :   2.6370 B( 91-C , 92-C ) :   0.9741 B( 91-C , 94-H ) :   0.9395 
B( 91-C , 95-H ) :   0.9385 B( 91-C , 96-H ) :   0.9397 B( 92-C , 93-N ) :   2.7483 
B( 97-C , 98-C ) :   0.9693 B( 97-C ,100-H ) :   0.9403 B( 97-C ,101-H ) :   0.9397 
B( 97-C ,102-H ) :   0.9408 B( 98-C , 99-N ) :   2.7436 B(103-C ,104-C ) :   0.9771 
B(103-C ,106-H ) :   0.9321 B(103-C ,107-H ) :   0.9206 B(103-C ,108-H ) :   0.9474 
B(104-C ,105-N ) :   2.6540 B(109-C ,110-C ) :   0.9798 B(109-C ,112-H ) :   0.9457 
B(109-C ,113-H ) :   0.9121 B(109-C ,114-H ) :   0.9494 B(110-C ,111-N ) :   2.6189 
B(115-C ,116-C ) :   0.9608 B(115-C ,118-H ) :   0.9409 B(115-C ,119-H ) :   0.9429 
B(115-C ,120-H ) :   0.9225 B(116-C ,117-N ) :   2.7727 

-------
TIMINGS
-------

Total SCF time: 0 days 0 hours 9 min 56 sec 

Total time                  ....     596.320 sec
Sum of individual times     ....     417.489 sec  ( 70.0%)

Fock matrix formation       ....     260.544 sec  ( 43.7%)
  Split-RI-J                ....      54.960 sec  ( 21.1% of F)
  XC integration            ....      85.200 sec  ( 32.7% of F)
    Basis function eval.    ....      17.500 sec  ( 20.5% of XC)
    Density eval.           ....      28.497 sec  ( 33.4% of XC)
    XC-Functional eval.     ....       9.956 sec  ( 11.7% of XC)
    XC-Potential eval.      ....      24.620 sec  ( 28.9% of XC)
Diagonalization             ....       3.832 sec  (  0.6%)
Density matrix formation    ....       0.508 sec  (  0.1%)
Population analysis         ....       0.529 sec  (  0.1%)
Initial guess               ....      75.548 sec  ( 12.7%)
Orbital Transformation      ....       0.000 sec  (  0.0%)
Orbital Orthonormalization  ....       0.000 sec  (  0.0%)
DIIS solution               ....       2.471 sec  (  0.4%)
SOSCF solution              ....       3.197 sec  (  0.5%)
Grid generation             ....      70.859 sec  ( 11.9%)

Maximum memory used throughout the entire SCF-calculation: 1429.9 MB


-------------------------------------------------------------------------------
                          DFT DISPERSION CORRECTION                            
                                                                               
                                 DFTD4 V2.5                                    
-------------------------------------------------------------------------------
The R2SCAN3C composite method is recognized
Using three-body term ABC
Active option DFTDOPT                   ...         5   

Starting D4
-------------------------   ----------------
Dispersion correction           -0.044261810
-------------------------   ----------------

------------------   -----------------
gCP correction             0.059641887
------------------   -----------------

-------------------------   --------------------
FINAL SINGLE POINT ENERGY     -3332.040932878264
-------------------------   --------------------


                            ***************************************
                            *     ORCA property calculations      *
                            ***************************************

                                    ---------------------
                                    Active property flags
                                    ---------------------
   (+) Dipole Moment


------------------------------------------------------------------------------
                       ORCA ELECTRIC PROPERTIES CALCULATION
------------------------------------------------------------------------------

Dipole Moment Calculation                       ... on
Quadrupole Moment Calculation                   ... off
Polarizability Calculation                      ... off
GBWName                                         ... ORCA.gbw
Electron density                                ... ORCA.scfp
The origin for moment calculation is the CENTER OF MASS  = ( 0.289091,  0.122897 -0.062855)

-------------
DIPOLE MOMENT
-------------
                                X             Y             Z
Electronic contribution:      6.82949     -33.32914       3.14822
Nuclear contribution   :     -7.60373      33.67113      -4.50966
                        -----------------------------------------
Total Dipole Moment    :     -0.77424       0.34199      -1.36144
                        -----------------------------------------
Magnitude (a.u.)       :      1.60310
Magnitude (Debye)      :      4.07475



--------------------
Rotational spectrum 
--------------------
 
Rotational constants in cm-1:     0.000901     0.000776     0.000643 
Rotational constants in MHz :    27.023805    23.267770    19.276960 

 Dipole components along the rotational axes: 
x,y,z [a.u.] :    -0.286166     0.388525    -1.528749 
x,y,z [Debye]:    -0.727376     0.987552    -3.885772 

 

Timings for individual modules:

Sum of individual times         ...      609.710 sec (=  10.162 min)
GTO integral calculation        ...       12.513 sec (=   0.209 min)   2.1 %
SCF iterations                  ...      597.196 sec (=   9.953 min)  97.9 %
                             ****ORCA TERMINATED NORMALLY****
TOTAL RUN TIME: 0 days 0 hours 10 minutes 11 seconds 656 msec
