
                                 *****************
                                 * O   R   C   A *
                                 *****************

                                            #,                                       
                                            ###                                      
                                            ####                                     
                                            #####                                    
                                            ######                                   
                                           ########,                                 
                                     ,,################,,,,,                         
                               ,,#################################,,                 
                          ,,##########################################,,             
                       ,#########################################, ''#####,          
                    ,#############################################,,   '####,        
                  ,##################################################,,,,####,       
                ,###########''''           ''''###############################       
              ,#####''   ,,,,##########,,,,          '''####'''          '####       
            ,##' ,,,,###########################,,,                        '##       
           ' ,,###''''                  '''############,,,                           
         ,,##''                                '''############,,,,        ,,,,,,###''
      ,#''                                            '''#######################'''  
     '                                                          ''''####''''         
             ,#######,   #######,   ,#######,      ##                                
            ,#'     '#,  ##    ##  ,#'     '#,    #''#        ######   ,####,        
            ##       ##  ##   ,#'  ##            #'  '#       #        #'  '#        
            ##       ##  #######   ##           ,######,      #####,   #    #        
            '#,     ,#'  ##    ##  '#,     ,#' ,#      #,         ##   #,  ,#        
             '#######'   ##     ##  '#######'  #'      '#     #####' # '####'        



                  #######################################################
                  #                        -***-                        #
                  #          Department of theory and spectroscopy      #
                  #    Directorship and core code : Frank Neese         #
                  #        Max Planck Institute fuer Kohlenforschung    #
                  #                Kaiser Wilhelm Platz 1               #
                  #                 D-45470 Muelheim/Ruhr               #
                  #                      Germany                        #
                  #                                                     #
                  #                  All rights reserved                #
                  #                        -***-                        #
                  #######################################################


                         Program Version 5.0.4 -  RELEASE  -


 With contributions from (in alphabetic order):
   Daniel Aravena         : Magnetic Suceptibility
   Michael Atanasov       : Ab Initio Ligand Field Theory (pilot matlab implementation)
   Alexander A. Auer      : GIAO ZORA, VPT2 properties, NMR spectrum
   Ute Becker             : Parallelization
   Giovanni Bistoni       : ED, misc. LED, open-shell LED, HFLD
   Martin Brehm           : Molecular dynamics
   Dmytro Bykov           : SCF Hessian
   Vijay G. Chilkuri      : MRCI spin determinant printing, contributions to CSF-ICE
   Dipayan Datta          : RHF DLPNO-CCSD density
   Achintya Kumar Dutta   : EOM-CC, STEOM-CC
   Dmitry Ganyushin       : Spin-Orbit,Spin-Spin,Magnetic field MRCI
   Miquel Garcia          : C-PCM and meta-GGA Hessian, CC/C-PCM, Gaussian charge scheme
   Yang Guo               : DLPNO-NEVPT2, F12-NEVPT2, CIM, IAO-localization
   Andreas Hansen         : Spin unrestricted coupled pair/coupled cluster methods
   Benjamin Helmich-Paris : MC-RPA, TRAH-SCF, COSX integrals
   Lee Huntington         : MR-EOM, pCC
   Robert Izsak           : Overlap fitted RIJCOSX, COSX-SCS-MP3, EOM
   Marcus Kettner         : VPT2
   Christian Kollmar      : KDIIS, OOCD, Brueckner-CCSD(T), CCSD density, CASPT2, CASPT2-K
   Simone Kossmann        : Meta GGA functionals, TD-DFT gradient, OOMP2, MP2 Hessian
   Martin Krupicka        : Initial AUTO-CI
   Lucas Lang             : DCDCAS
   Marvin Lechner         : AUTO-CI (C++ implementation), FIC-MRCC
   Dagmar Lenk            : GEPOL surface, SMD
   Dimitrios Liakos       : Extrapolation schemes; Compound Job, initial MDCI parallelization
   Dimitrios Manganas     : Further ROCIS development; embedding schemes
   Dimitrios Pantazis     : SARC Basis sets
   Anastasios Papadopoulos: AUTO-CI, single reference methods and gradients
   Taras Petrenko         : DFT Hessian,TD-DFT gradient, ASA, ECA, R-Raman, ABS, FL, XAS/XES, NRVS
   Peter Pinski           : DLPNO-MP2, DLPNO-MP2 Gradient
   Christoph Reimann      : Effective Core Potentials
   Marius Retegan         : Local ZFS, SOC
   Christoph Riplinger    : Optimizer, TS searches, QM/MM, DLPNO-CCSD(T), (RO)-DLPNO pert. Triples
   Tobias Risthaus        : Range-separated hybrids, TD-DFT gradient, RPA, STAB
   Michael Roemelt        : Original ROCIS implementation
   Masaaki Saitow         : Open-shell DLPNO-CCSD energy and density
   Barbara Sandhoefer     : DKH picture change effects
   Avijit Sen             : IP-ROCIS
   Kantharuban Sivalingam : CASSCF convergence, NEVPT2, FIC-MRCI
   Bernardo de Souza      : ESD, SOC TD-DFT
   Georgi Stoychev        : AutoAux, RI-MP2 NMR, DLPNO-MP2 response
   Willem Van den Heuvel  : Paramagnetic NMR
   Boris Wezisla          : Elementary symmetry handling
   Frank Wennmohs         : Technical directorship


 We gratefully acknowledge several colleagues who have allowed us to
 interface, adapt or use parts of their codes:
   Stefan Grimme, W. Hujo, H. Kruse, P. Pracht,  : VdW corrections, initial TS optimization,
                  C. Bannwarth, S. Ehlert          DFT functionals, gCP, sTDA/sTD-DF
   Ed Valeev, F. Pavosevic, A. Kumar             : LibInt (2-el integral package), F12 methods
   Garnet Chan, S. Sharma, J. Yang, R. Olivares  : DMRG
   Ulf Ekstrom                                   : XCFun DFT Library
   Mihaly Kallay                                 : mrcc  (arbitrary order and MRCC methods)
   Jiri Pittner, Ondrej Demel                    : Mk-CCSD
   Frank Weinhold                                : gennbo (NPA and NBO analysis)
   Christopher J. Cramer and Donald G. Truhlar   : smd solvation model
   Lars Goerigk                                  : TD-DFT with DH, B97 family of functionals
   V. Asgeirsson, H. Jonsson                     : NEB implementation
   FAccTs GmbH                                   : IRC, NEB, NEB-TS, DLPNO-Multilevel, CI-OPT
                                                   MM, QMMM, 2- and 3-layer-ONIOM, Crystal-QMMM,
                                                   LR-CPCM, SF, NACMEs, symmetry and pop. for TD-DFT,
                                                   nearIR, NL-DFT gradient (VV10), updates on ESD,
                                                   ML-optimized integration grids
   S Lehtola, MJT Oliveira, MAL Marques          : LibXC Library
   Liviu Ungur et al                             : ANISO software


 Your calculation uses the libint2 library for the computation of 2-el integrals
 For citations please refer to: http://libint.valeyev.net

 Your ORCA version has been built with support for libXC version: 5.1.0
 For citations please refer to: https://tddft.org/programs/libxc/

 This ORCA versions uses:
   CBLAS   interface :  Fast vector & matrix operations
   LAPACKE interface :  Fast linear algebra routines
   SCALAPACK package :  Parallel linear algebra routines
   Shared memory     :  Shared parallel matrices
   BLAS/LAPACK       :  OpenBLAS 0.3.15  USE64BITINT DYNAMIC_ARCH NO_AFFINITY SkylakeX SINGLE_THREADED
        Core in use  :  SkylakeX
   Copyright (c) 2011-2014, The OpenBLAS Project




***************************************
The coordinates will be read from file: xtbopt.xyz
***************************************


Your calculation utilizes the geometrical counterpoise correction gCP
Please cite in your paper:
H.Kruse, S. Grimme J.Chem.Phys., 136, (2012), 154101 
   

Your calculation utilizes the atom-pairwise dispersion correction
based on tight binding partial charges (D4)
Cite in your paper:
E.Caldeweyher, C.Bannwarth, S.Grimme, J.Chem.Phys., (2017), 147, 034112.
E.Caldeweyher, S.Ehlert, A.Hansen, H.Neugebauer, S.Grimme, J.Chem.Phys., (2018), in progress.
   

Your calculation utilizes the SMD solvation module
Please cite in your paper:
A.V. Marenich, C.J. Cramer, D.G. Truhlar J. Phys. Chem. B, 113, (2009), 6378 

================================================================================

----- Orbital basis set information -----
Your calculation utilizes the basis: def2-mTZVPP
   Stefan Grimme, Andreas Hansen, Sebastian Ehlert, and Jan-Michael Mewes 
   J. Chem. Phys. 154, 000000 (2021). DOI: 10.1063/5.0040021

----- AuxJ basis set information -----
Your calculation utilizes the auxiliary basis: def2/J
   F. Weigend, Phys. Chem. Chem. Phys. 8, 1057 (2006).

================================================================================
                                        WARNINGS
                       Please study these warnings very carefully!
================================================================================

Using LibXC functional ID 497 : Re-regularized SCAN exchange by Furness et al
[ 1]  J. W. Furness, A. D. Kaplan, J. Ning, J. P. Perdew, and J. Sun, J. Phys. Chem. Lett. 11, 8208 (2020)
[ 2]  J. W. Furness, A. D. Kaplan, J. Ning, J. P. Perdew, and J. Sun, J. Phys. Chem. Lett. 11, 9248 (2020)
Using LibXC functional ID 498 : Re-regularized SCAN correlation by Furness et al
[ 1]  J. W. Furness, A. D. Kaplan, J. Ning, J. P. Perdew, and J. Sun, J. Phys. Chem. Lett. 11, 8208 (2020)
[ 2]  J. W. Furness, A. D. Kaplan, J. Ning, J. P. Perdew, and J. Sun, J. Phys. Chem. Lett. 11, 9248 (2020)
Using LibXC functional ID 497 : Re-regularized SCAN exchange by Furness et al
[ 1]  J. W. Furness, A. D. Kaplan, J. Ning, J. P. Perdew, and J. Sun, J. Phys. Chem. Lett. 11, 8208 (2020)
[ 2]  J. W. Furness, A. D. Kaplan, J. Ning, J. P. Perdew, and J. Sun, J. Phys. Chem. Lett. 11, 9248 (2020)
Using LibXC functional ID 498 : Re-regularized SCAN correlation by Furness et al
[ 1]  J. W. Furness, A. D. Kaplan, J. Ning, J. P. Perdew, and J. Sun, J. Phys. Chem. Lett. 11, 8208 (2020)
[ 2]  J. W. Furness, A. D. Kaplan, J. Ning, J. P. Perdew, and J. Sun, J. Phys. Chem. Lett. 11, 9248 (2020)

INFO   : the flag for use of the SHARK integral package has been found!

================================================================================
                                       INPUT FILE
================================================================================
NAME = ORCA.in
|  1> ! r2SCAN-3c ENERGY TightSCF defgrid3 def2/J
|  2> %maxcore 8000
|  3> %PAL NPROCS 8 END
|  4> %CPCM SMD TRUE
|  5>       SMDSOLVENT "MeCN"
|  6> END
|  7> *xyzfile 1 1  xtbopt.xyz
|  8> 
|  9>                          ****END OF INPUT****
================================================================================

                       ****************************
                       * Single Point Calculation *
                       ****************************

---------------------------------
CARTESIAN COORDINATES (ANGSTROEM)
---------------------------------
  K     -0.026415   -0.404437    0.403372
  C      1.786624    1.364260   -2.014273
  C      0.938043    0.775845   -3.000268
  N      0.269736    0.316076   -3.809171
  H      2.309238    0.580116   -1.469182
  H      1.179177    1.941806   -1.320034
  H      2.509605    2.017543   -2.501846
  C      8.567038   -0.050129   -2.017442
  C      7.391897   -0.844419   -1.836171
  N      6.449295   -1.477999   -1.691435
  H      8.348153    0.986245   -1.762638
  H      8.887532   -0.108827   -3.057059
  H      9.361456   -0.423268   -1.372000
  C      2.062616    2.898452    3.724285
  C      1.756697    2.062363    2.609377
  N      1.510941    1.381901    1.722713
  H      3.129807    2.857925    3.936631
  H      1.502597    2.547709    4.592642
  H      1.776539    3.925290    3.502039
  C     -3.769621    1.710752   -0.339752
  C     -2.350122    1.762526   -0.422536
  N     -1.207684    1.801316   -0.484592
  H     -4.189510    1.544491   -1.331529
  H     -4.151071    2.646889    0.063646
  H     -4.046490    0.888861    0.319670
  C      3.820301   -3.397183   -1.542423
  C      2.788105   -2.577872   -1.000426
  N      1.965018   -1.908518   -0.569479
  H      4.742144   -2.815727   -1.602324
  H      3.537408   -3.728707   -2.540352
  H      3.978961   -4.262858   -0.901554
  C     -2.693661   -0.982477   -3.608469
  C     -2.176325   -1.236908   -2.308006
  N     -1.756217   -1.440007   -1.262430
  H     -3.499093   -0.250264   -3.545163
  H     -3.068035   -1.904796   -4.048794
  H     -1.886744   -0.579375   -4.219922
  C     -2.219179   -3.036648    1.626875
  C     -2.820962   -1.751405    1.776602
  N     -3.322681   -0.729674    1.905990
  H     -2.055375   -3.231022    0.568507
  H     -2.875226   -3.800023    2.044212
  H     -1.262894   -3.046527    2.146929
  C     -2.248705    1.427877    6.834453
  C     -0.898126    1.446714    6.373002
  N      0.186077    1.461199    6.002909
  H     -2.896174    1.061552    6.038364
  H     -2.551679    2.436086    7.115472
  H     -2.329047    0.771213    7.700206
  C     -6.228800    2.728653   -5.341877
  C     -5.533532    2.042633   -4.299514
  N     -4.976465    1.491995   -3.463769
  H     -7.016192    2.087549   -5.737055
  H     -5.529949    2.980135   -6.139074
  H     -6.670169    3.642103   -4.944542
  C      2.127638   -0.975311    4.839453
  C      1.256680   -1.316719    3.762738
  N      0.547589   -1.590033    2.907208
  H      2.234174   -1.825848    5.511311
  H      1.698483   -0.133598    5.384389
  H      3.103395   -0.699642    4.444048

----------------------------
CARTESIAN COORDINATES (A.U.)
----------------------------
  NO LB      ZA    FRAG     MASS         X           Y           Z
   0 K    19.0000    0    39.100   -0.049917   -0.764276    0.762262
   1 C     6.0000    0    12.011    3.376230    2.578079   -3.806424
   2 C     6.0000    0    12.011    1.772645    1.466135   -5.669684
   3 N     7.0000    0    14.007    0.509726    0.597297   -7.198290
   4 H     1.0000    0     1.008    4.363828    1.096261   -2.776351
   5 H     1.0000    0     1.008    2.228321    3.669481   -2.494502
   6 H     1.0000    0     1.008    4.742466    3.812605   -4.727803
   7 C     6.0000    0    12.011   16.189356   -0.094730   -3.812414
   8 C     6.0000    0    12.011   13.968660   -1.595720   -3.469861
   9 N     7.0000    0    14.007   12.187401   -2.793014   -3.196349
  10 H     1.0000    0     1.008   15.775723    1.863733   -3.330903
  11 H     1.0000    0     1.008   16.795002   -0.205653   -5.777005
  12 H     1.0000    0     1.008   17.690589   -0.799860   -2.592704
  13 C     6.0000    0    12.011    3.897779    5.477280    7.037879
  14 C     6.0000    0    12.011    3.319677    3.897301    4.931008
  15 N     7.0000    0    14.007    2.855264    2.611414    3.255455
  16 H     1.0000    0     1.008    5.914478    5.400696    7.439155
  17 H     1.0000    0     1.008    2.839497    4.814472    8.678835
  18 H     1.0000    0     1.008    3.357172    7.417724    6.617894
  19 C     6.0000    0    12.011   -7.123552    3.232853   -0.642038
  20 C     6.0000    0    12.011   -4.441087    3.330692   -0.798477
  21 N     7.0000    0    14.007   -2.282192    3.403994   -0.915746
  22 H     1.0000    0     1.008   -7.917026    2.918665   -2.516226
  23 H     1.0000    0     1.008   -7.844388    5.001896    0.120274
  24 H     1.0000    0     1.008   -7.646758    1.679703    0.604088
  25 C     6.0000    0    12.011    7.219323   -6.419745   -2.914758
  26 C     6.0000    0    12.011    5.268755   -4.871471   -1.890531
  27 N     7.0000    0    14.007    3.713345   -3.606577   -1.076160
  28 H     1.0000    0     1.008    8.961354   -5.320953   -3.027954
  29 H     1.0000    0     1.008    6.684732   -7.046236   -4.800570
  30 H     1.0000    0     1.008    7.519146   -8.055635   -1.703691
  31 C     6.0000    0    12.011   -5.090282   -1.856613   -6.819019
  32 C     6.0000    0    12.011   -4.112659   -2.337418   -4.361499
  33 N     7.0000    0    14.007   -3.318770   -2.721219   -2.385647
  34 H     1.0000    0     1.008   -6.612328   -0.472931   -6.699387
  35 H     1.0000    0     1.008   -5.797745   -3.599542   -7.651112
  36 H     1.0000    0     1.008   -3.565429   -1.094860   -7.974496
  37 C     6.0000    0    12.011   -4.193641   -5.738433    3.074347
  38 C     6.0000    0    12.011   -5.330845   -3.309676    3.357291
  39 N     7.0000    0    14.007   -6.278958   -1.378884    3.601799
  40 H     1.0000    0     1.008   -3.884096   -6.105747    1.074322
  41 H     1.0000    0     1.008   -5.433389   -7.181002    3.863001
  42 H     1.0000    0     1.008   -2.386524   -5.757103    4.057109
  43 C     6.0000    0    12.011   -4.249437    2.698297   12.915245
  44 C     6.0000    0    12.011   -1.697211    2.733893   12.043229
  45 N     7.0000    0    14.007    0.351634    2.761267   11.343854
  46 H     1.0000    0     1.008   -5.472976    2.006042   11.410855
  47 H     1.0000    0     1.008   -4.821974    4.603535   13.446294
  48 H     1.0000    0     1.008   -4.401261    1.457381   14.551280
  49 C     6.0000    0    12.011  -11.770726    5.156406  -10.094685
  50 C     6.0000    0    12.011  -10.456860    3.860017   -8.124904
  51 N     7.0000    0    14.007   -9.404157    2.819462   -6.545574
  52 H     1.0000    0     1.008  -13.258682    3.944896  -10.841463
  53 H     1.0000    0     1.008  -10.450088    5.631638  -11.601169
  54 H     1.0000    0     1.008  -12.604792    6.882576   -9.343831
  55 C     6.0000    0    12.011    4.020653   -1.843071    9.145241
  56 C     6.0000    0    12.011    2.374781   -2.488239    7.110544
  57 N     7.0000    0    14.007    1.034793   -3.004727    5.493828
  58 H     1.0000    0     1.008    4.221977   -3.450352   10.414868
  59 H     1.0000    0     1.008    3.209668   -0.252463   10.175021
  60 H     1.0000    0     1.008    5.864567   -1.322132    8.398034

--------------------------------
INTERNAL COORDINATES (ANGSTROEM)
--------------------------------
 K      0   0   0     0.000000000000     0.00000000     0.00000000
 C      1   0   0     3.501486604947     0.00000000     0.00000000
 C      2   1   0     1.427763307154    87.75936774     0.00000000
 N      3   2   1     1.145577373242   178.74814626   180.03042427
 H      2   1   3     1.088637608749    62.54889626   246.59192607
 H      2   1   3     1.088356283926    62.52398251   112.93896872
 H      2   1   3     1.089590192880   162.82368490   179.74570519
 C      5   2   1     6.313307801073   120.28258456   189.75558320
 C      8   5   2     1.429934575696    39.63296702   213.85881794
 N      9   8   5     1.144932774497   179.85210262     6.96684979
 H      8   5   2     1.089452580317    71.67410053    51.88402742
 H      8   5   2     1.089479378327   112.32323985   307.77199551
 H      8   5   2     1.089462778458   134.87111522   151.46058167
 C      1   2   3     5.128507958436    84.88651467   197.10922052
 C     14   1   2     1.426761906872    13.89329377   336.32871401
 N     15  14   1     1.144377139178   179.37730711   303.74855793
 H     14   1   2     1.088866278555   120.10186262   291.03761660
 H     14   1   2     1.091185193028    95.69554883   174.42547614
 H     14   1   2     1.088867024041   111.60160516    61.03789201
 C      1   2   3     4.363238624125    94.68870463   295.23105237
 C     20   1   2     1.422853272561    34.07295431   335.33141057
 N     21  20   1     1.144779727671   179.73029277   325.26505482
 H     20   1   2     1.089757951099   114.30488268    64.88985143
 H     20   1   2     1.088387075475   130.88220779   273.84918924
 H     20   1   2     1.089494922901    75.47669614   170.31168021
 C     10   9   8     3.258385703686   174.85797034   107.64383650
 C     26  10   9     1.424942608856   105.25941266   222.11593783
 N     27  26  10     1.145085825304   179.32502434    24.99697817
 H     26  10   9     1.091546268991     3.91822648    56.79513720
 H     26  10   9     1.088944268361   110.30483936   340.25906479
 H     26  10   9     1.088705607965   112.18973205   102.73570643
 C      4   3   2     3.241642031984   130.56878578   201.35493060
 C     32   4   3     1.422524760030    78.21677959   331.43291111
 N     33  32   4     1.144975244370   179.78799550   356.90761169
 H     32   4   3     1.090350716501   114.19677690    77.82397260
 H     32   4   3     1.088445015909   128.96366345   225.02978230
 H     32   4   3     1.089716212365    30.70050938   165.20583298
 C     34  33  32     3.333418269083   145.64182306   192.84647915
 C     38  34  33     1.427028318261    73.62767410   268.51591278
 N     39  38  34     1.145599592032   178.84650240   133.73143109
 H     38  34  33     1.088464751490    38.90677411    63.41181957
 H     38  34  33     1.089636703126   138.69095983     9.91253659
 H     38  34  33     1.088593713504   107.24297743   163.01173862
 C     18  14   1     4.511320236572   154.42229192   308.30903944
 C     44  18  14     1.427360266504    18.06054684   145.59424388
 N     45  44  18     1.145719625556   179.96433386   193.34485957
 H     44  18  14     1.089572052306   102.38663650    30.88750692
 H     44  18  14     1.089609640221    97.45180517   278.93071288
 H     44  18  14     1.089582960916   127.28365425   157.55233490
 C     35  32   4     4.421925707673   152.22775396    77.31217476
 C     50  35  32     1.428475480551    23.00393093   196.30232754
 N     51  50  35     1.145423573237   179.96464247   285.58777768
 H     50  35  32     1.089571340966   101.36680444    82.86334744
 H     50  35  32     1.089568500990    93.25804786   332.21482696
 H     50  35  32     1.089528523262   131.81231501   212.30570170
 C     46  45  44     3.325638746824   131.01175991    38.05118921
 C     56  46  45     1.426339252802    94.75892995    58.62878367
 N     57  56  46     1.144308342256   179.33557204   315.08441906
 H     56  46  45     1.089107335399   114.42180937   304.37185557
 H     56  46  45     1.090692660513    14.09255112   232.24811535
 H     56  46  45     1.088319815194   117.70766680   173.59621245

---------------------------
INTERNAL COORDINATES (A.U.)
---------------------------
 K      0   0   0     0.000000000000     0.00000000     0.00000000
 C      1   0   0     6.616850744944     0.00000000     0.00000000
 C      2   1   0     2.698081634584    87.75936774     0.00000000
 N      3   2   1     2.164827500645   178.74814626   180.03042427
 H      2   1   3     2.057226939623    62.54889626   246.59192607
 H      2   1   3     2.056695312753    62.52398251   112.93896872
 H      2   1   3     2.059027062749   162.82368490   179.74570519
 C      5   2   1    11.930422743176   120.28258456   189.75558320
 C      8   5   2     2.702184737490    39.63296702   213.85881794
 N      9   8   5     2.163609385551   179.85210262     6.96684979
 H      8   5   2     2.058767012693    71.67410053    51.88402742
 H      8   5   2     2.058817653593   112.32323985   307.77199551
 H      8   5   2     2.058786284386   134.87111522   151.46058167
 C      1   2   3     9.691475517079    84.88651467   197.10922052
 C     14   1   2     2.696189262299    13.89329377   336.32871401
 N     15  14   1     2.162559386967   179.37730711   303.74855793
 H     14   1   2     2.057659062932   120.10186262   291.03761660
 H     14   1   2     2.062041176212    95.69554883   174.42547614
 H     14   1   2     2.057660471695   111.60160516    61.03789201
 C      1   2   3     8.245326056545    94.68870463   295.23105237
 C     20   1   2     2.688803013895    34.07295431   335.33141057
 N     21  20   1     2.163320168964   179.73029277   325.26505482
 H     20   1   2     2.059344079840   114.30488268    64.88985143
 H     20   1   2     2.056753500347   130.88220779   273.84918924
 H     20   1   2     2.058847028581    75.47669614   170.31168021
 C     10   9   8     6.157456618651   174.85797034   107.64383650
 C     26  10   9     2.692751287293   105.25941266   222.11593783
 N     27  26  10     2.163898609660   179.32502434    24.99697817
 H     26  10   9     2.062723510896     3.91822648    56.79513720
 H     26  10   9     2.057806442306   110.30483936   340.25906479
 H     26  10   9     2.057355439519   112.18973205   102.73570643
 C      4   3   2     6.125815664657   130.56878578   201.35493060
 C     32   4   3     2.688182215178    78.21677959   331.43291111
 N     33  32   4     2.163689641979   179.78799550   356.90761169
 H     32   4   3     2.060464244112   114.19677690    77.82397260
 H     32   4   3     2.056862991900   128.96366345   225.02978230
 H     32   4   3     2.059265205063    30.70050938   165.20583298
 C     34  33  32     6.299247618376   145.64182306   192.84647915
 C     38  34  33     2.696692706864    73.62767410   268.51591278
 N     39  38  34     2.164869488072   178.84650240   133.73143109
 H     38  34  33     2.056900286742    38.90677411    63.41181957
 H     38  34  33     2.059114954376   138.69095983     9.91253659
 H     38  34  33     2.057143989630   107.24297743   163.01173862
 C     18  14   1     8.525159749538   154.42229192   308.30903944
 C     44  18  14     2.697319998133    18.06054684   145.59424388
 N     45  44  18     2.165096318559   179.96433386   193.34485957
 H     44  18  14     2.058992782033   102.38663650    30.88750692
 H     44  18  14     2.059063812899    97.45180517   278.93071288
 H     44  18  14     2.059013396319   127.28365425   157.55233490
 C     35  32   4     8.356228572048   152.22775396    77.31217476
 C     50  35  32     2.699427447262    23.00393093   196.30232754
 N     51  50  35     2.164536860756   179.96464247   285.58777768
 H     50  35  32     2.058991437796   101.36680444    82.86334744
 H     50  35  32     2.058986071018    93.25804786   332.21482696
 H     50  35  32     2.058910524061   131.81231501   212.30570170
 C     46  45  44     6.284546451854   131.01175991    38.05118921
 C     56  46  45     2.695390561857    94.75892995    58.62878367
 N     57  56  46     2.162429379625   179.33557204   315.08441906
 H     56  46  45     2.058114594348   114.42180937   304.37185557
 H     56  46  45     2.061110424648    14.09255112   232.24811535
 H     56  46  45     2.056626396837   117.70766680   173.59621245

---------------------
BASIS SET INFORMATION
---------------------
There are 4 groups of distinct atoms

 Group   1 Type K   : 17s11p contracted to 6s4p pattern {842111/6311}
 Group   2 Type C   : 11s6p1d contracted to 5s3p1d pattern {62111/411/1}
 Group   3 Type N   : 11s6p2d contracted to 5s3p2d pattern {62111/411/11}
 Group   4 Type H   : 4s1p contracted to 2s1p pattern {31/1}

Atom   0K    basis set group =>   1
Atom   1C    basis set group =>   2
Atom   2C    basis set group =>   2
Atom   3N    basis set group =>   3
Atom   4H    basis set group =>   4
Atom   5H    basis set group =>   4
Atom   6H    basis set group =>   4
Atom   7C    basis set group =>   2
Atom   8C    basis set group =>   2
Atom   9N    basis set group =>   3
Atom  10H    basis set group =>   4
Atom  11H    basis set group =>   4
Atom  12H    basis set group =>   4
Atom  13C    basis set group =>   2
Atom  14C    basis set group =>   2
Atom  15N    basis set group =>   3
Atom  16H    basis set group =>   4
Atom  17H    basis set group =>   4
Atom  18H    basis set group =>   4
Atom  19C    basis set group =>   2
Atom  20C    basis set group =>   2
Atom  21N    basis set group =>   3
Atom  22H    basis set group =>   4
Atom  23H    basis set group =>   4
Atom  24H    basis set group =>   4
Atom  25C    basis set group =>   2
Atom  26C    basis set group =>   2
Atom  27N    basis set group =>   3
Atom  28H    basis set group =>   4
Atom  29H    basis set group =>   4
Atom  30H    basis set group =>   4
Atom  31C    basis set group =>   2
Atom  32C    basis set group =>   2
Atom  33N    basis set group =>   3
Atom  34H    basis set group =>   4
Atom  35H    basis set group =>   4
Atom  36H    basis set group =>   4
Atom  37C    basis set group =>   2
Atom  38C    basis set group =>   2
Atom  39N    basis set group =>   3
Atom  40H    basis set group =>   4
Atom  41H    basis set group =>   4
Atom  42H    basis set group =>   4
Atom  43C    basis set group =>   2
Atom  44C    basis set group =>   2
Atom  45N    basis set group =>   3
Atom  46H    basis set group =>   4
Atom  47H    basis set group =>   4
Atom  48H    basis set group =>   4
Atom  49C    basis set group =>   2
Atom  50C    basis set group =>   2
Atom  51N    basis set group =>   3
Atom  52H    basis set group =>   4
Atom  53H    basis set group =>   4
Atom  54H    basis set group =>   4
Atom  55C    basis set group =>   2
Atom  56C    basis set group =>   2
Atom  57N    basis set group =>   3
Atom  58H    basis set group =>   4
Atom  59H    basis set group =>   4
Atom  60H    basis set group =>   4
---------------------------------
AUXILIARY/J BASIS SET INFORMATION
---------------------------------
There are 4 groups of distinct atoms

 Group   1 Type K   : 19s5p5d3f1g contracted to 8s4p4d1f1g pattern {121111111/2111/2111/3/1}
 Group   2 Type C   : 12s5p4d2f1g contracted to 6s4p3d1f1g pattern {711111/2111/211/2/1}
 Group   3 Type N   : 12s5p4d2f1g contracted to 6s4p3d1f1g pattern {711111/2111/211/2/1}
 Group   4 Type H   : 5s2p1d contracted to 3s1p1d pattern {311/2/1}

Atom   0K    basis set group =>   1
Atom   1C    basis set group =>   2
Atom   2C    basis set group =>   2
Atom   3N    basis set group =>   3
Atom   4H    basis set group =>   4
Atom   5H    basis set group =>   4
Atom   6H    basis set group =>   4
Atom   7C    basis set group =>   2
Atom   8C    basis set group =>   2
Atom   9N    basis set group =>   3
Atom  10H    basis set group =>   4
Atom  11H    basis set group =>   4
Atom  12H    basis set group =>   4
Atom  13C    basis set group =>   2
Atom  14C    basis set group =>   2
Atom  15N    basis set group =>   3
Atom  16H    basis set group =>   4
Atom  17H    basis set group =>   4
Atom  18H    basis set group =>   4
Atom  19C    basis set group =>   2
Atom  20C    basis set group =>   2
Atom  21N    basis set group =>   3
Atom  22H    basis set group =>   4
Atom  23H    basis set group =>   4
Atom  24H    basis set group =>   4
Atom  25C    basis set group =>   2
Atom  26C    basis set group =>   2
Atom  27N    basis set group =>   3
Atom  28H    basis set group =>   4
Atom  29H    basis set group =>   4
Atom  30H    basis set group =>   4
Atom  31C    basis set group =>   2
Atom  32C    basis set group =>   2
Atom  33N    basis set group =>   3
Atom  34H    basis set group =>   4
Atom  35H    basis set group =>   4
Atom  36H    basis set group =>   4
Atom  37C    basis set group =>   2
Atom  38C    basis set group =>   2
Atom  39N    basis set group =>   3
Atom  40H    basis set group =>   4
Atom  41H    basis set group =>   4
Atom  42H    basis set group =>   4
Atom  43C    basis set group =>   2
Atom  44C    basis set group =>   2
Atom  45N    basis set group =>   3
Atom  46H    basis set group =>   4
Atom  47H    basis set group =>   4
Atom  48H    basis set group =>   4
Atom  49C    basis set group =>   2
Atom  50C    basis set group =>   2
Atom  51N    basis set group =>   3
Atom  52H    basis set group =>   4
Atom  53H    basis set group =>   4
Atom  54H    basis set group =>   4
Atom  55C    basis set group =>   2
Atom  56C    basis set group =>   2
Atom  57N    basis set group =>   3
Atom  58H    basis set group =>   4
Atom  59H    basis set group =>   4
Atom  60H    basis set group =>   4


           ************************************************************
           *        Program running with 8 parallel MPI-processes     *
           *              working on a common directory               *
           ************************************************************
------------------------------------------------------------------------------
                           ORCA GTO INTEGRAL CALCULATION
                           -- RI-GTO INTEGRALS CHOSEN --
------------------------------------------------------------------------------
------------------------------------------------------------------------------
                   ___                                                        
                  /   \      - P O W E R E D   B Y -                         
                 /     \                                                     
                 |  |  |   _    _      __       _____    __    __             
                 |  |  |  | |  | |    /  \     |  _  \  |  |  /  |          
                  \  \/   | |  | |   /    \    | | | |  |  | /  /          
                 / \  \   | |__| |  /  /\  \   | |_| |  |  |/  /          
                |  |  |   |  __  | /  /__\  \  |    /   |      \           
                |  |  |   | |  | | |   __   |  |    \   |  |\   \          
                \     /   | |  | | |  |  |  |  | |\  \  |  | \   \       
                 \___/    |_|  |_| |__|  |__|  |_| \__\ |__|  \__/        
                                                                              
                      - O R C A' S   B I G   F R I E N D -                    
                                      &                                       
                       - I N T E G R A L  F E E D E R -                       
                                                                              
 v1 FN, 2020, v2 2021                                                         
------------------------------------------------------------------------------


Reading SHARK input file ORCA.SHARKINP.tmp ... ok
----------------------
SHARK INTEGRAL PACKAGE
----------------------

Number of atoms                             ...     61
Number of basis functions                   ...    788
Number of shells                            ...    380
Maximum angular momentum                    ...      2
Integral batch strategy                     ... SHARK/LIBINT Hybrid
RI-J (if used) integral strategy            ... SPLIT-RIJ (Revised 2003 algorithm where possible)
Printlevel                                  ...      1
Contraction scheme used                     ... SEGMENTED contraction
Coulomb Range Separation                    ... NOT USED
Exchange Range Separation                   ... NOT USED
Finite Nucleus Model                        ... NOT USED
Auxiliary Coulomb fitting basis             ... AVAILABLE
   # of basis functions in Aux-J            ...   1856
   # of shells in Aux-J                     ...    618
   Maximum angular momentum in Aux-J        ...      4
Auxiliary J/K fitting basis                 ... NOT available
Auxiliary Correlation fitting basis         ... NOT available
Auxiliary 'external' fitting basis          ... NOT available
Integral threshold                          ...     2.500000e-11
Primitive cut-off                           ...     2.500000e-12
Primitive pair pre-selection threshold      ...     2.500000e-12

Calculating pre-screening integrals         ... done (  0.1 sec) Dimension = 380
Organizing shell pair data                  ... done (  0.2 sec)
Shell pair information
Total number of shell pairs                 ...     72390
Shell pairs after pre-screening             ...     35029
Total number of primitive shell pairs       ...    266159
Primitive shell pairs kept                  ...     74643
          la=0 lb=0:  10683 shell pairs
          la=1 lb=0:  13316 shell pairs
          la=1 lb=1:   4199 shell pairs
          la=2 lb=0:   3902 shell pairs
          la=2 lb=1:   2530 shell pairs
          la=2 lb=2:    399 shell pairs

Calculating one electron integrals          ... done (  0.1 sec)
Calculating RI/J V-Matrix + Cholesky decomp.... done (  0.2 sec)
Calculating Nuclear repulsion               ... done (  0.0 sec) ENN=   2915.172129272873 Eh

SHARK setup successfully completed in   0.8 seconds

Maximum memory used throughout the entire GTOINT-calculation: 54.1 MB


           ************************************************************
           *        Program running with 8 parallel MPI-processes     *
           *              working on a common directory               *
           ************************************************************
-------------------------------------------------------------------------------
                                 ORCA SCF
-------------------------------------------------------------------------------

------------
SCF SETTINGS
------------
Hamiltonian:
 Density Functional     Method          .... DFT(GTOs)
  Functional kind                       .... Exchange
  Functional name                       .... Re-regularized SCAN exchange by Furness et al
  Functional family                     .... MGGA
  Functional refs                              
    [ 0] J. W. Furness, A. D. Kaplan, J. Ning, J. P. Perdew, and J. Sun, J. Phys. Chem. Lett. 11, 8208 (2020)
    [ 1] J. W. Furness, A. D. Kaplan, J. Ning, J. P. Perdew, and J. Sun, J. Phys. Chem. Lett. 11, 9248 (2020)
  Functional external parameters         .... 8
 Parameter  0 :         c1 parameter
 Parameter  1 :         c2 parameter
 Parameter  2 :          d parameter
 Parameter  3 :         k1 parameter
 Parameter  4 :       taur parameter
 Parameter  5 :     alphar parameter
 Parameter  6 :        eta parameter
 Parameter  7 :        dp2 parameter
  Functional kind                       .... Correlation
  Functional name                       .... Re-regularized SCAN correlation by Furness et al
  Functional family                     .... MGGA
  Functional refs                              
    [ 0] J. W. Furness, A. D. Kaplan, J. Ning, J. P. Perdew, and J. Sun, J. Phys. Chem. Lett. 11, 8208 (2020)
    [ 1] J. W. Furness, A. D. Kaplan, J. Ning, J. P. Perdew, and J. Sun, J. Phys. Chem. Lett. 11, 9248 (2020)
  Functional external parameters         .... 0
 Gradients option       PostSCFGGA      .... off
   Density functional embedding theory  .... OFF
 RI-approximation to the Coulomb term is turned on
   Number of AuxJ basis functions       .... 1856


General Settings:
 Integral files         IntName         .... ORCA
 Hartree-Fock type      HFTyp           .... RHF
 Total Charge           Charge          ....    1
 Multiplicity           Mult            ....    1
 Number of Electrons    NEL             ....  238
 Basis Dimension        Dim             ....  788
 Nuclear Repulsion      ENuc            ....   2915.1721292729 Eh

Convergence Acceleration:
 DIIS                   CNVDIIS         .... on
   Start iteration      DIISMaxIt       ....    12
   Startup error        DIISStart       ....  0.200000
   # of expansion vecs  DIISMaxEq       ....     5
   Bias factor          DIISBfac        ....   1.050
   Max. coefficient     DIISMaxC        ....  10.000
 Trust-Rad. Augm. Hess. CNVTRAH         .... auto
   Auto Start mean grad. ratio tolernc. ....  1.125000
   Auto Start start iteration           ....    20
   Auto Start num. interpolation iter.  ....    10
   Max. Number of Micro iterations      ....    16
   Max. Number of Macro iterations      .... Maxiter - #DIIS iter
   Number of Davidson start vectors     ....     2
   Converg. threshold I  (grad. norm)   ....   1.000e-05
   Converg. threshold II (energy diff.) ....   1.000e-08
   Grad. Scal. Fac. for Micro threshold ....   0.100
   Minimum threshold for Micro iter.    ....   0.010
   NR start threshold (gradient norm)   ....   0.001
   Initial trust radius                 ....   0.400
   Minimum AH scaling param. (alpha)    ....   1.000
   Maximum AH scaling param. (alpha)    .... 1000.000
   Orbital update algorithm             .... Taylor
   White noise on init. David. guess    .... on
   Maximum white noise                  ....   0.010
   Quad. conv. algorithm                .... NR
   COSX micro iterations for RIJONX calc.... off
 SOSCF                  CNVSOSCF        .... on
   Start iteration      SOSCFMaxIt      ....   150
   Startup grad/error   SOSCFStart      ....  0.003300
 Level Shifting         CNVShift        .... on
   Level shift para.    LevelShift      ....    0.2500
   Turn off err/grad.   ShiftErr        ....    0.0010
 Zerner damping         CNVZerner       .... off
 Static damping         CNVDamp         .... on
   Fraction old density DampFac         ....    0.7000
   Max. Damping (<1)    DampMax         ....    0.9800
   Min. Damping (>=0)   DampMin         ....    0.0000
   Turn off err/grad.   DampErr         ....    0.1000
 Fernandez-Rico         CNVRico         .... off

SCF Procedure:
 Maximum # iterations   MaxIter         ....   125
 SCF integral mode      SCFMode         .... Direct
   Integral package                     .... SHARK and LIBINT hybrid scheme
 Reset frequency        DirectResetFreq ....    20
 Integral Threshold     Thresh          ....  2.500e-11 Eh
 Primitive CutOff       TCut            ....  2.500e-12 Eh

Convergence Tolerance:
 Convergence Check Mode ConvCheckMode   .... Total+1el-Energy
 Convergence forced     ConvForced      .... 0
 Energy Change          TolE            ....  1.000e-08 Eh
 1-El. energy change                    ....  1.000e-05 Eh
 Orbital Gradient       TolG            ....  1.000e-05
 Orbital Rotation angle TolX            ....  1.000e-05
 DIIS Error             TolErr          ....  5.000e-07


Diagonalization of the overlap matrix:
Smallest eigenvalue                        ... 1.411e-04
Time for diagonalization                   ...    0.120 sec
Threshold for overlap eigenvalues          ... 1.000e-08
Number of eigenvalues below threshold      ... 0
Time for construction of square roots      ...    0.055 sec
Total time needed                          ...    0.179 sec

Time for model grid setup =    0.541 sec

------------------------------
INITIAL GUESS: MODEL POTENTIAL
------------------------------
Loading Hartree-Fock densities                     ... done
Calculating cut-offs                               ... done
Initializing the effective Hamiltonian             ... done
Setting up the integral package (SHARK)            ... done
Starting the Coulomb interaction                   ... done (   0.6 sec)
Reading the grid                                   ... done
Mapping shells                                     ... done
Starting the XC term evaluation                    ... done (   0.2 sec)
  promolecular density results
     # of electrons  =    238.984134586
     EX              =   -208.425690908
     EC              =     -7.766190457
     EX+EC           =   -216.191881365
Transforming the Hamiltonian                       ... done (   0.1 sec)
Diagonalizing the Hamiltonian                      ... done (   0.1 sec)
Back transforming the eigenvectors                 ... done (   0.0 sec)
Now organizing SCF variables                       ... done
                      ------------------
                      INITIAL GUESS DONE (   1.6 sec)
                      ------------------
-------------------
DFT GRID GENERATION
-------------------

General Integration Accuracy     IntAcc      ... 4.959
Radial Grid Type                 RadialGrid  ... OptM3 with GC (2021)
Angular Grid (max. ang.)         AngularGrid ... 6 (Lebedev-590)
Angular grid pruning method      GridPruning ... 4 (adaptive)
Weight generation scheme         WeightScheme... Becke
Basis function cutoff            BFCut       ... 1.0000e-11
Integration weight cutoff        WCut        ... 1.0000e-14
Angular grids for H and He will be reduced by one unit
Partially contracted basis set               ... off
Rotationally invariant grid construction     ... off

Total number of grid points                  ...   715756
Total number of batches                      ...    11216
Average number of points per batch           ...       63
Average number of grid points per atom       ...    11734
Time for grid setup =    9.207 sec


--------------------
CPCM SOLVATION MODEL
--------------------
CPCM parameters:
  Epsilon                                         ...      35.6880
  Refrac                                          ...       1.3442
  Rsolv                                           ...       1.3000
  Surface type                                    ... GAUSSIAN VDW
  Epsilon function type                           ...         CPCM
Solvent:                                     ... MECN
SMD-CDS solvent descriptors:
  Soln                                       ...    1.3442
  Soln25                                     ...    1.3416
  Sola                                       ...    0.0700
  Solb                                       ...    0.3200
  Solg                                       ...   41.2500
  Solc                                       ...    0.0000
  Solh                                       ...    0.0000
Radii:
 Radius for K  used is    5.1967 Bohr (=   2.7500 Ang.)
 Radius for C  used is    3.4960 Bohr (=   1.8500 Ang.)
 Radius for N  used is    3.5716 Bohr (=   1.8900 Ang.)
 Radius for H  used is    2.2677 Bohr (=   1.2000 Ang.)
Calculating surface                               ...        done! (  0.0s)
GEPOL surface points                              ...         3949
GEPOL Volume                                      ...    3902.5548
GEPOL Surface-area                                ...    2233.7282
Calculating surface distance matrix               ...        done! (  0.2s)
Performing Cholesky decomposition & store         ...        done! (  0.9s)
Overall time for CPCM initialization              ...                 1.1s
--------------
SCF ITERATIONS
--------------
ITER       Energy         Delta-E        Max-DP      RMS-DP      [F,P]     Damp
               ***  Starting incremental Fock matrix formation  ***
  0  -1926.0413448709   0.000000000000 0.04964727  0.00073928  0.2703436 0.7000
  1  -1926.5855844767  -0.544239605766 0.02823337  0.00049488  0.1004058 0.7000
                               ***Turning on DIIS***
  2  -1926.7589292623  -0.173344785618 0.03690321  0.00079481  0.0402025 0.0000
  3  -1927.0734515405  -0.314522278171 0.02124147  0.00040950  0.0468015 0.0000
  4  -1927.1271423288  -0.053690788352 0.00868584  0.00015862  0.0315801 0.0000
  5  -1927.1394161832  -0.012273854341 0.00281286  0.00004784  0.0068429 0.0000
                      *** Initiating the SOSCF procedure ***
                           *** Shutting down DIIS ***
                      *** Re-Reading the Fockian *** 
                      *** Removing any level shift *** 
ITER      Energy       Delta-E        Grad      Rot      Max-DP    RMS-DP
  6  -1927.14000355  -0.0005873639  0.000358  0.000358  0.000838  0.000015
               *** Restarting incremental Fock matrix formation ***
  7  -1927.14004072  -0.0000371743  0.000303  0.000941  0.001197  0.000014
  8  -1927.13999358   0.0000471379  0.000856  0.000712  0.000886  0.000009
  9  -1927.14004950  -0.0000559167  0.000029  0.000065  0.000123  0.000002
 10  -1927.14004918   0.0000003166  0.000048  0.000048  0.000094  0.000001
 11  -1927.14004977  -0.0000005878  0.000020  0.000037  0.000076  0.000001
 12  -1927.14004962   0.0000001474  0.000027  0.000021  0.000044  0.000001
                  ***Gradient check signals convergence***
              ***Rediagonalizing the Fockian in SOSCF/NRSCF***

               *****************************************************
               *                     SUCCESS                       *
               *           SCF CONVERGED AFTER  13 CYCLES          *
               *****************************************************


SMD CDS free energy correction energy :                 4.11171     Kcal/mol
Total Energy after SMD CDS correction =             -1927.133497381 Eh

----------------
TOTAL SCF ENERGY
----------------

Total Energy       :        -1927.13349738 Eh          -52439.96846 eV

Components:
Nuclear Repulsion  :         2915.17212927 Eh           79325.86649 eV
Electronic Energy  :        -4842.30562665 Eh         -131765.83495 eV
One Electron Energy:        -8407.08295762 Eh         -228768.35764 eV
Two Electron Energy:         3564.77733096 Eh           97002.52269 eV
CPCM Dielectric    :           -0.10027564 Eh              -2.72864 eV
SMD CDS (Gcds)     :            0.00655243 Eh               0.17830 eV

Virial components:
Potential Energy   :        -3848.35448091 Eh         -104719.04924 eV
Kinetic Energy     :         1921.22098353 Eh           52279.08078 eV
Virial Ratio       :            2.00307748


DFT components:
N(Alpha)           :      118.999986856349 electrons
N(Beta)            :      118.999986856349 electrons
N(Total)           :      237.999973712697 electrons
E(X)               :     -213.379929198997 Eh       
E(C)               :       -7.634205640759 Eh       
E(XC)              :     -221.014134839756 Eh       
DFET-embed. en.    :        0.000000000000 Eh       
CPCM Solvation Model Properties:
Surface-charge          :           -1.05688238
Charge-correction       :            0.00380661 Eh               0.10358 eV
Free-energy (cav+disp)  :            0.00655243 Eh               0.17830 eV

---------------
SCF CONVERGENCE
---------------

  Last Energy change         ...   -1.8280e-07  Tolerance :   1.0000e-08
  Last MAX-Density change    ...    8.2986e-06  Tolerance :   1.0000e-07
  Last RMS-Density change    ...    1.1926e-07  Tolerance :   5.0000e-09
  Last Orbital Gradient      ...    8.8935e-07  Tolerance :   1.0000e-05
  Last Orbital Rotation      ...    1.3142e-06  Tolerance :   1.0000e-05

             **** THE GBW FILE WAS UPDATED (ORCA.gbw) ****
             **** DENSITY ORCA.scfp WAS UPDATED ****
             **** ENERGY FILE WAS UPDATED (ORCA.en.tmp) ****
             **** THE GBW FILE WAS UPDATED (ORCA.gbw) ****
             **** DENSITY ORCA.scfp WAS UPDATED ****
----------------
ORBITAL ENERGIES
----------------

  NO   OCC          E(Eh)            E(eV) 
   0   2.0000    -129.365730     -3520.2205 
   1   2.0000     -14.161539      -385.3551 
   2   2.0000     -14.160968      -385.3395 
   3   2.0000     -14.160440      -385.3252 
   4   2.0000     -14.160387      -385.3237 
   5   2.0000     -14.160219      -385.3191 
   6   2.0000     -14.159991      -385.3129 
   7   2.0000     -14.159431      -385.2977 
   8   2.0000     -14.159323      -385.2948 
   9   2.0000     -14.159181      -385.2909 
  10   2.0000     -14.158419      -385.2702 
  11   2.0000     -13.035877      -354.7242 
  12   2.0000     -10.361216      -281.9430 
  13   2.0000     -10.361148      -281.9412 
  14   2.0000     -10.360989      -281.9368 
  15   2.0000     -10.087342      -274.4905 
  16   2.0000     -10.087331      -274.4902 
  17   2.0000     -10.086404      -274.4650 
  18   2.0000     -10.086345      -274.4634 
  19   2.0000     -10.085566      -274.4422 
  20   2.0000     -10.085313      -274.4353 
  21   2.0000     -10.084886      -274.4237 
  22   2.0000     -10.084355      -274.4093 
  23   2.0000     -10.083696      -274.3913 
  24   2.0000     -10.082600      -274.3615 
  25   2.0000     -10.062841      -273.8238 
  26   2.0000     -10.062673      -273.8193 
  27   2.0000     -10.062485      -273.8141 
  28   2.0000     -10.061954      -273.7997 
  29   2.0000     -10.059612      -273.7359 
  30   2.0000     -10.058952      -273.7180 
  31   2.0000     -10.057515      -273.6789 
  32   2.0000     -10.055520      -273.6246 
  33   2.0000     -10.054659      -273.6012 
  34   2.0000     -10.054243      -273.5899 
  35   2.0000      -1.274349       -34.6768 
  36   2.0000      -0.892577       -24.2883 
  37   2.0000      -0.890340       -24.2274 
  38   2.0000      -0.889867       -24.2145 
  39   2.0000      -0.889352       -24.2005 
  40   2.0000      -0.888463       -24.1763 
  41   2.0000      -0.888235       -24.1701 
  42   2.0000      -0.887955       -24.1625 
  43   2.0000      -0.887776       -24.1576 
  44   2.0000      -0.886842       -24.1322 
  45   2.0000      -0.885969       -24.1084 
  46   2.0000      -0.739359       -20.1190 
  47   2.0000      -0.738900       -20.1065 
  48   2.0000      -0.738356       -20.0917 
  49   2.0000      -0.737867       -20.0784 
  50   2.0000      -0.737261       -20.0619 
  51   2.0000      -0.736779       -20.0488 
  52   2.0000      -0.735883       -20.0244 
  53   2.0000      -0.735397       -20.0112 
  54   2.0000      -0.735246       -20.0071 
  55   2.0000      -0.735100       -20.0031 
  56   2.0000      -0.655855       -17.8467 
  57   2.0000      -0.653125       -17.7724 
  58   2.0000      -0.652704       -17.7610 
  59   2.0000      -0.477851       -13.0030 
  60   2.0000      -0.477133       -12.9835 
  61   2.0000      -0.476488       -12.9659 
  62   2.0000      -0.475508       -12.9392 
  63   2.0000      -0.474854       -12.9214 
  64   2.0000      -0.473084       -12.8733 
  65   2.0000      -0.472332       -12.8528 
  66   2.0000      -0.472152       -12.8479 
  67   2.0000      -0.471610       -12.8332 
  68   2.0000      -0.470936       -12.8148 
  69   2.0000      -0.429772       -11.6947 
  70   2.0000      -0.428437       -11.6584 
  71   2.0000      -0.427582       -11.6351 
  72   2.0000      -0.427178       -11.6241 
  73   2.0000      -0.425890       -11.5890 
  74   2.0000      -0.425469       -11.5776 
  75   2.0000      -0.424043       -11.5388 
  76   2.0000      -0.423024       -11.5111 
  77   2.0000      -0.422676       -11.5016 
  78   2.0000      -0.421950       -11.4818 
  79   2.0000      -0.421553       -11.4710 
  80   2.0000      -0.421481       -11.4691 
  81   2.0000      -0.421407       -11.4671 
  82   2.0000      -0.421072       -11.4579 
  83   2.0000      -0.420959       -11.4549 
  84   2.0000      -0.419115       -11.4047 
  85   2.0000      -0.419010       -11.4018 
  86   2.0000      -0.418364       -11.3843 
  87   2.0000      -0.414463       -11.2781 
  88   2.0000      -0.414300       -11.2737 
  89   2.0000      -0.362188        -9.8557 
  90   2.0000      -0.354391        -9.6435 
  91   2.0000      -0.351833        -9.5739 
  92   2.0000      -0.351204        -9.5567 
  93   2.0000      -0.350978        -9.5506 
  94   2.0000      -0.348599        -9.4859 
  95   2.0000      -0.346861        -9.4386 
  96   2.0000      -0.346616        -9.4319 
  97   2.0000      -0.345760        -9.4086 
  98   2.0000      -0.344186        -9.3658 
  99   2.0000      -0.322071        -8.7640 
 100   2.0000      -0.320217        -8.7135 
 101   2.0000      -0.318816        -8.6754 
 102   2.0000      -0.317857        -8.6493 
 103   2.0000      -0.316363        -8.6087 
 104   2.0000      -0.315265        -8.5788 
 105   2.0000      -0.314608        -8.5609 
 106   2.0000      -0.313781        -8.5384 
 107   2.0000      -0.313551        -8.5322 
 108   2.0000      -0.313355        -8.5268 
 109   2.0000      -0.312675        -8.5083 
 110   2.0000      -0.312511        -8.5039 
 111   2.0000      -0.311232        -8.4691 
 112   2.0000      -0.310110        -8.4385 
 113   2.0000      -0.309069        -8.4102 
 114   2.0000      -0.308110        -8.3841 
 115   2.0000      -0.306721        -8.3463 
 116   2.0000      -0.306142        -8.3305 
 117   2.0000      -0.302953        -8.2438 
 118   2.0000      -0.302432        -8.2296 
 119   0.0000      -0.010813        -0.2942 
 120   0.0000      -0.009563        -0.2602 
 121   0.0000      -0.007807        -0.2124 
 122   0.0000      -0.005672        -0.1543 
 123   0.0000      -0.002938        -0.0800 
 124   0.0000      -0.001261        -0.0343 
 125   0.0000      -0.000595        -0.0162 
 126   0.0000       0.000127         0.0034 
 127   0.0000       0.002751         0.0749 
 128   0.0000       0.003600         0.0980 
 129   0.0000       0.004601         0.1252 
 130   0.0000       0.005553         0.1511 
 131   0.0000       0.006373         0.1734 
 132   0.0000       0.006938         0.1888 
 133   0.0000       0.007264         0.1977 
 134   0.0000       0.008102         0.2205 
 135   0.0000       0.011027         0.3001 
 136   0.0000       0.011465         0.3120 
 137   0.0000       0.011820         0.3216 
 138   0.0000       0.016576         0.4510 
 139   0.0000       0.018721         0.5094 
 140   0.0000       0.041319         1.1244 
 141   0.0000       0.048385         1.3166 
 142   0.0000       0.060264         1.6399 
 143   0.0000       0.067904         1.8478 
 144   0.0000       0.070347         1.9142 
 145   0.0000       0.076513         2.0820 
 146   0.0000       0.087885         2.3915 
 147   0.0000       0.091173         2.4809 
 148   0.0000       0.098686         2.6854 
 149   0.0000       0.100636         2.7384 
 150   0.0000       0.114378         3.1124 
 151   0.0000       0.118287         3.2188 
 152   0.0000       0.126113         3.4317 
 153   0.0000       0.139296         3.7904 
 154   0.0000       0.146925         3.9980 
 155   0.0000       0.149702         4.0736 
 156   0.0000       0.152191         4.1413 
 157   0.0000       0.152913         4.1610 
 158   0.0000       0.155980         4.2444 
 159   0.0000       0.158232         4.3057 
 160   0.0000       0.161314         4.3896 
 161   0.0000       0.162320         4.4169 
 162   0.0000       0.162589         4.4243 
 163   0.0000       0.163984         4.4622 
 164   0.0000       0.165140         4.4937 
 165   0.0000       0.167001         4.5443 
 166   0.0000       0.169725         4.6185 
 167   0.0000       0.170722         4.6456 
 168   0.0000       0.171200         4.6586 
 169   0.0000       0.174428         4.7464 
 170   0.0000       0.179771         4.8918 
 171   0.0000       0.180881         4.9220 
 172   0.0000       0.182570         4.9680 
 173   0.0000       0.184810         5.0289 
 174   0.0000       0.186026         5.0620 
 175   0.0000       0.190390         5.1808 
 176   0.0000       0.191153         5.2015 
 177   0.0000       0.193328         5.2607 
 178   0.0000       0.195634         5.3235 
 179   0.0000       0.199107         5.4180 
 180   0.0000       0.199468         5.4278 
 181   0.0000       0.200646         5.4599 
 182   0.0000       0.201434         5.4813 
 183   0.0000       0.202908         5.5214 
 184   0.0000       0.203706         5.5431 
 185   0.0000       0.203971         5.5503 
 186   0.0000       0.204725         5.5708 
 187   0.0000       0.206784         5.6269 
 188   0.0000       0.207920         5.6578 
 189   0.0000       0.208656         5.6778 
 190   0.0000       0.210120         5.7177 
 191   0.0000       0.211888         5.7658 
 192   0.0000       0.212394         5.7795 
 193   0.0000       0.214318         5.8319 
 194   0.0000       0.216994         5.9047 
 195   0.0000       0.219487         5.9725 
 196   0.0000       0.220262         5.9936 
 197   0.0000       0.221288         6.0216 
 198   0.0000       0.222617         6.0577 
 199   0.0000       0.223146         6.0721 
 200   0.0000       0.224623         6.1123 
 201   0.0000       0.225743         6.1428 
 202   0.0000       0.227396         6.1878 
 203   0.0000       0.231154         6.2900 
 204   0.0000       0.232529         6.3274 
 205   0.0000       0.234474         6.3803 
 206   0.0000       0.236233         6.4282 
 207   0.0000       0.240616         6.5475 
 208   0.0000       0.245804         6.6887 
 209   0.0000       0.247298         6.7293 
 210   0.0000       0.248871         6.7721 
 211   0.0000       0.254832         6.9343 
 212   0.0000       0.260606         7.0914 
 213   0.0000       0.262677         7.1478 
 214   0.0000       0.266619         7.2551 
 215   0.0000       0.274542         7.4707 
 216   0.0000       0.279410         7.6031 
 217   0.0000       0.284635         7.7453 
 218   0.0000       0.287517         7.8237 
 219   0.0000       0.288676         7.8553 
 220   0.0000       0.292106         7.9486 
 221   0.0000       0.299133         8.1398 
 222   0.0000       0.304116         8.2754 
 223   0.0000       0.306913         8.3515 
 224   0.0000       0.310851         8.4587 
 225   0.0000       0.319377         8.6907 
 226   0.0000       0.320674         8.7260 
 227   0.0000       0.322740         8.7822 
 228   0.0000       0.328341         8.9346 
 229   0.0000       0.333005         9.0615 
 230   0.0000       0.335396         9.1266 
 231   0.0000       0.337211         9.1760 
 232   0.0000       0.339990         9.2516 
 233   0.0000       0.343507         9.3473 
 234   0.0000       0.346520         9.4293 
 235   0.0000       0.355705         9.6792 
 236   0.0000       0.357235         9.7209 
 237   0.0000       0.360444         9.8082 
 238   0.0000       0.363391         9.8884 
 239   0.0000       0.372271        10.1300 
 240   0.0000       0.374006        10.1772 
 241   0.0000       0.380168        10.3449 
 242   0.0000       0.384856        10.4725 
 243   0.0000       0.391609        10.6562 
 244   0.0000       0.397648        10.8205 
 245   0.0000       0.400836        10.9073 
 246   0.0000       0.404178        10.9983 
 247   0.0000       0.409362        11.1393 
 248   0.0000       0.410621        11.1736 
 249   0.0000       0.416727        11.3397 
 250   0.0000       0.420669        11.4470 
 251   0.0000       0.423183        11.5154 
 252   0.0000       0.426527        11.6064 
 253   0.0000       0.431989        11.7550 
 254   0.0000       0.436659        11.8821 
 255   0.0000       0.438086        11.9209 
 256   0.0000       0.443001        12.0547 
 257   0.0000       0.447323        12.1723 
 258   0.0000       0.449891        12.2422 
 259   0.0000       0.453546        12.3416 
 260   0.0000       0.459041        12.4911 
 261   0.0000       0.461110        12.5474 
 262   0.0000       0.465265        12.6605 
 263   0.0000       0.468510        12.7488 
 264   0.0000       0.470981        12.8161 
 265   0.0000       0.471813        12.8387 
 266   0.0000       0.479551        13.0492 
 267   0.0000       0.482498        13.1294 
 268   0.0000       0.483857        13.1664 
 269   0.0000       0.488591        13.2952 
 270   0.0000       0.491375        13.3710 
 271   0.0000       0.492697        13.4070 
 272   0.0000       0.495121        13.4729 
 273   0.0000       0.499075        13.5805 
 274   0.0000       0.503911        13.7121 
 275   0.0000       0.513516        13.9735 
 276   0.0000       0.516581        14.0569 
 277   0.0000       0.521325        14.1860 
 278   0.0000       0.522348        14.2138 
 279   0.0000       0.522841        14.2272 
 280   0.0000       0.523737        14.2516 
 281   0.0000       0.531220        14.4552 
 282   0.0000       0.533378        14.5140 
 283   0.0000       0.534021        14.5315 
 284   0.0000       0.544355        14.8126 
 285   0.0000       0.550298        14.9744 
 286   0.0000       0.555818        15.1246 
 287   0.0000       0.558701        15.2030 
 288   0.0000       0.563276        15.3275 
 289   0.0000       0.569917        15.5082 
 290   0.0000       0.575589        15.6626 
 291   0.0000       0.582590        15.8531 
 292   0.0000       0.584232        15.8978 
 293   0.0000       0.593819        16.1586 
 294   0.0000       0.597137        16.2489 
 295   0.0000       0.598994        16.2995 
 296   0.0000       0.603293        16.4164 
 297   0.0000       0.614842        16.7307 
 298   0.0000       0.617282        16.7971 
 299   0.0000       0.619916        16.8688 
 300   0.0000       0.627618        17.0783 
 301   0.0000       0.630870        17.1669 
 302   0.0000       0.634655        17.2698 
 303   0.0000       0.638102        17.3636 
 304   0.0000       0.642851        17.4929 
 305   0.0000       0.645400        17.5622 
 306   0.0000       0.648567        17.6484 
 307   0.0000       0.651468        17.7273 
 308   0.0000       0.655098        17.8261 
 309   0.0000       0.667541        18.1647 
 310   0.0000       0.670880        18.2556 
 311   0.0000       0.674272        18.3479 
 312   0.0000       0.676572        18.4105 
 313   0.0000       0.681872        18.5547 
 314   0.0000       0.689389        18.7592 
 315   0.0000       0.691608        18.8196 
 316   0.0000       0.694754        18.9052 
 317   0.0000       0.697707        18.9856 
 318   0.0000       0.704024        19.1575 
 319   0.0000       0.710209        19.3258 
 320   0.0000       0.711528        19.3617 
 321   0.0000       0.715186        19.4612 
 322   0.0000       0.716986        19.5102 
 323   0.0000       0.726126        19.7589 
 324   0.0000       0.729786        19.8585 
 325   0.0000       0.732031        19.9196 
 326   0.0000       0.739287        20.1170 
 327   0.0000       0.748146        20.3581 
 328   0.0000       0.751430        20.4474 
 329   0.0000       0.753793        20.5117 
 330   0.0000       0.760246        20.6873 
 331   0.0000       0.763949        20.7881 
 332   0.0000       0.766491        20.8573 
 333   0.0000       0.773199        21.0398 
 334   0.0000       0.779617        21.2145 
 335   0.0000       0.793019        21.5792 
 336   0.0000       0.800931        21.7944 
 337   0.0000       0.804274        21.8854 
 338   0.0000       0.812633        22.1129 
 339   0.0000       0.822118        22.3710 
 340   0.0000       0.824630        22.4393 
 341   0.0000       0.828676        22.5494 
 342   0.0000       0.838444        22.8152 
 343   0.0000       0.841767        22.9056 
 344   0.0000       0.844710        22.9857 
 345   0.0000       0.849125        23.1059 
 346   0.0000       0.853574        23.2269 
 347   0.0000       0.860357        23.4115 
 348   0.0000       0.870099        23.6766 
 349   0.0000       0.875508        23.8238 
 350   0.0000       0.885573        24.0977 
 351   0.0000       0.892103        24.2754 
 352   0.0000       0.903083        24.5741 
 353   0.0000       0.911537        24.8042 
 354   0.0000       0.941206        25.6115 
 355   0.0000       0.968958        26.3667 
 356   0.0000       0.974323        26.5127 
 357   0.0000       0.990377        26.9495 
 358   0.0000       0.992649        27.0113 
 359   0.0000       1.000125        27.2148 
 360   0.0000       1.009183        27.4613 
 361   0.0000       1.012309        27.5463 
 362   0.0000       1.014373        27.6025 
 363   0.0000       1.016396        27.6575 
 364   0.0000       1.016602        27.6631 
 365   0.0000       1.019480        27.7415 
 366   0.0000       1.020564        27.7710 
 367   0.0000       1.021252        27.7897 
 368   0.0000       1.024919        27.8895 
 369   0.0000       1.031609        28.0715 
 370   0.0000       1.048551        28.5325 
 371   0.0000       1.052776        28.6475 
 372   0.0000       1.065567        28.9955 
 373   0.0000       1.072457        29.1830 
 374   0.0000       1.081028        29.4163 
 375   0.0000       1.092496        29.7283 
 376   0.0000       1.102317        29.9956 
 377   0.0000       1.103510        30.0280 
 378   0.0000       1.107522        30.1372 
 379   0.0000       1.111731        30.2517 
 380   0.0000       1.149289        31.2737 
 381   0.0000       1.157019        31.4841 
 382   0.0000       1.160524        31.5795 
 383   0.0000       1.160773        31.5862 
 384   0.0000       1.164237        31.6805 
 385   0.0000       1.169833        31.8328 
 386   0.0000       1.176432        32.0123 
 387   0.0000       1.220052        33.1993 
 388   0.0000       1.225523        33.3482 
 389   0.0000       1.252250        34.0755 
 390   0.0000       1.272687        34.6316 
 391   0.0000       1.277797        34.7706 
 392   0.0000       1.285537        34.9812 
 393   0.0000       1.290242        35.1093 
 394   0.0000       1.296493        35.2794 
 395   0.0000       1.300760        35.3955 
 396   0.0000       1.301160        35.4064 
 397   0.0000       1.301651        35.4197 
 398   0.0000       1.302898        35.4537 
 399   0.0000       1.304867        35.5072 
 400   0.0000       1.307625        35.5823 
 401   0.0000       1.310944        35.6726 
 402   0.0000       1.314514        35.7697 
 403   0.0000       1.319774        35.9129 
 404   0.0000       1.321430        35.9580 
 405   0.0000       1.324137        36.0316 
 406   0.0000       1.330760        36.2118 
 407   0.0000       1.331860        36.2417 
 408   0.0000       1.333447        36.2849 
 409   0.0000       1.333815        36.2949 
 410   0.0000       1.337178        36.3865 
 411   0.0000       1.338477        36.4218 
 412   0.0000       1.339121        36.4393 
 413   0.0000       1.344399        36.5830 
 414   0.0000       1.346088        36.6289 
 415   0.0000       1.348336        36.6901 
 416   0.0000       1.351220        36.7686 
 417   0.0000       1.351596        36.7788 
 418   0.0000       1.355053        36.8729 
 419   0.0000       1.356159        36.9030 
 420   0.0000       1.360842        37.0304 
 421   0.0000       1.362478        37.0749 
 422   0.0000       1.363351        37.0987 
 423   0.0000       1.370368        37.2896 
 424   0.0000       1.372877        37.3579 
 425   0.0000       1.375092        37.4181 
 426   0.0000       1.378012        37.4976 
 427   0.0000       1.379690        37.5433 
 428   0.0000       1.384568        37.6760 
 429   0.0000       1.387967        37.7685 
 430   0.0000       1.390433        37.8356 
 431   0.0000       1.401802        38.1450 
 432   0.0000       1.407547        38.3013 
 433   0.0000       1.409006        38.3410 
 434   0.0000       1.419599        38.6293 
 435   0.0000       1.425430        38.7879 
 436   0.0000       1.434249        39.0279 
 437   0.0000       1.439458        39.1697 
 438   0.0000       1.447574        39.3905 
 439   0.0000       1.451933        39.5091 
 440   0.0000       1.465266        39.8719 
 441   0.0000       1.471094        40.0305 
 442   0.0000       1.477911        40.2160 
 443   0.0000       1.486046        40.4374 
 444   0.0000       1.501067        40.8461 
 445   0.0000       1.505131        40.9567 
 446   0.0000       1.507986        41.0344 
 447   0.0000       1.515807        41.2472 
 448   0.0000       1.517120        41.2829 
 449   0.0000       1.527649        41.5694 
 450   0.0000       1.540353        41.9151 
 451   0.0000       1.568820        42.6898 
 452   0.0000       1.573329        42.8124 
 453   0.0000       1.578770        42.9605 
 454   0.0000       1.585963        43.1563 
 455   0.0000       1.598413        43.4950 
 456   0.0000       1.623350        44.1736 
 457   0.0000       1.633243        44.4428 
 458   0.0000       1.665281        45.3146 
 459   0.0000       1.673965        45.5509 
 460   0.0000       1.681970        45.7687 
 461   0.0000       1.684139        45.8278 
 462   0.0000       1.685363        45.8611 
 463   0.0000       1.688170        45.9375 
 464   0.0000       1.691337        46.0236 
 465   0.0000       1.692841        46.0646 
 466   0.0000       1.696933        46.1759 
 467   0.0000       1.701672        46.3048 
 468   0.0000       1.704193        46.3735 
 469   0.0000       1.708288        46.4849 
 470   0.0000       1.710389        46.5420 
 471   0.0000       1.717566        46.7373 
 472   0.0000       1.720552        46.8186 
 473   0.0000       1.722441        46.8700 
 474   0.0000       1.723199        46.8906 
 475   0.0000       1.726300        46.9750 
 476   0.0000       1.729120        47.0518 
 477   0.0000       1.732605        47.1466 
 478   0.0000       1.734696        47.2035 
 479   0.0000       1.740513        47.3618 
 480   0.0000       1.741950        47.4009 
 481   0.0000       1.745383        47.4943 
 482   0.0000       1.748378        47.5758 
 483   0.0000       1.754289        47.7366 
 484   0.0000       1.757316        47.8190 
 485   0.0000       1.760467        47.9048 
 486   0.0000       1.762173        47.9512 
 487   0.0000       1.764366        48.0108 
 488   0.0000       1.769363        48.1468 
 489   0.0000       1.772492        48.2320 
 490   0.0000       1.776329        48.3364 
 491   0.0000       1.777858        48.3780 
 492   0.0000       1.780822        48.4586 
 493   0.0000       1.784105        48.5480 
 494   0.0000       1.788934        48.6794 
 495   0.0000       1.791003        48.7357 
 496   0.0000       1.794541        48.8320 
 497   0.0000       1.799493        48.9667 
 498   0.0000       1.804112        49.0924 
 499   0.0000       1.804661        49.1073 
 500   0.0000       1.813499        49.3478 
 501   0.0000       1.816501        49.4295 
 502   0.0000       1.817086        49.4454 
 503   0.0000       1.822122        49.5825 
 504   0.0000       1.827572        49.7308 
 505   0.0000       1.829531        49.7841 
 506   0.0000       1.834004        49.9058 
 507   0.0000       1.836302        49.9683 
 508   0.0000       1.843984        50.1773 
 509   0.0000       1.845183        50.2100 
 510   0.0000       1.848901        50.3112 
 511   0.0000       1.851412        50.3795 
 512   0.0000       1.856447        50.5165 
 513   0.0000       1.856743        50.5245 
 514   0.0000       1.856990        50.5313 
 515   0.0000       1.866290        50.7843 
 516   0.0000       1.868486        50.8441 
 517   0.0000       1.871771        50.9335 
 518   0.0000       1.872835        50.9624 
 519   0.0000       1.876716        51.0680 
 520   0.0000       1.879500        51.1438 
 521   0.0000       1.883406        51.2501 
 522   0.0000       1.884366        51.2762 
 523   0.0000       1.887893        51.3722 
 524   0.0000       1.898725        51.6669 
 525   0.0000       1.903233        51.7896 
 526   0.0000       1.909569        51.9620 
 527   0.0000       1.913860        52.0788 
 528   0.0000       1.916248        52.1438 
 529   0.0000       1.919392        52.2293 
 530   0.0000       1.923784        52.3488 
 531   0.0000       1.926352        52.4187 
 532   0.0000       1.937945        52.7342 
 533   0.0000       1.949050        53.0363 
 534   0.0000       1.962684        53.4074 
 535   0.0000       1.965345        53.4798 
 536   0.0000       1.981227        53.9119 
 537   0.0000       1.998164        54.3728 
 538   0.0000       2.011131        54.7257 
 539   0.0000       2.018048        54.9139 
 540   0.0000       2.035833        55.3978 
 541   0.0000       2.049578        55.7718 
 542   0.0000       2.052288        55.8456 
 543   0.0000       2.066881        56.2427 
 544   0.0000       2.083150        56.6854 
 545   0.0000       2.096034        57.0360 
 546   0.0000       2.101035        57.1721 
 547   0.0000       2.103618        57.2424 
 548   0.0000       2.195516        59.7430 
 549   0.0000       2.199359        59.8476 
 550   0.0000       2.209288        60.1178 
 551   0.0000       2.220693        60.4281 
 552   0.0000       2.226363        60.5824 
 553   0.0000       2.227555        60.6148 
 554   0.0000       2.240039        60.9546 
 555   0.0000       2.245420        61.1010 
 556   0.0000       2.250549        61.2405 
 557   0.0000       2.253558        61.3224 
 558   0.0000       2.255325        61.3705 
 559   0.0000       2.257483        61.4292 
 560   0.0000       2.259847        61.4936 
 561   0.0000       2.264469        61.6193 
 562   0.0000       2.267659        61.7061 
 563   0.0000       2.268955        61.7414 
 564   0.0000       2.271109        61.8000 
 565   0.0000       2.274661        61.8967 
 566   0.0000       2.276067        61.9349 
 567   0.0000       2.277820        61.9826 
 568   0.0000       2.283586        62.1395 
 569   0.0000       2.287254        62.2393 
 570   0.0000       2.289669        62.3051 
 571   0.0000       2.297795        62.5262 
 572   0.0000       2.298943        62.5574 
 573   0.0000       2.305204        62.7278 
 574   0.0000       2.306107        62.7524 
 575   0.0000       2.311447        62.8977 
 576   0.0000       2.318448        63.0882 
 577   0.0000       2.322182        63.1898 
 578   0.0000       2.332133        63.4606 
 579   0.0000       2.336054        63.5673 
 580   0.0000       2.343641        63.7737 
 581   0.0000       2.345655        63.8285 
 582   0.0000       2.355747        64.1031 
 583   0.0000       2.361078        64.2482 
 584   0.0000       2.361959        64.2722 
 585   0.0000       2.374485        64.6130 
 586   0.0000       2.379292        64.7438 
 587   0.0000       2.386170        64.9310 
 588   0.0000       2.388436        64.9927 
 589   0.0000       2.397326        65.2346 
 590   0.0000       2.401382        65.3449 
 591   0.0000       2.403721        65.4086 
 592   0.0000       2.404264        65.4234 
 593   0.0000       2.405186        65.4484 
 594   0.0000       2.405548        65.4583 
 595   0.0000       2.406099        65.4733 
 596   0.0000       2.406966        65.4969 
 597   0.0000       2.413815        65.6833 
 598   0.0000       2.416832        65.7653 
 599   0.0000       2.420838        65.8744 
 600   0.0000       2.423373        65.9433 
 601   0.0000       2.426675        66.0332 
 602   0.0000       2.435947        66.2855 
 603   0.0000       2.442464        66.4628 
 604   0.0000       2.443467        66.4901 
 605   0.0000       2.447980        66.6129 
 606   0.0000       2.449517        66.6547 
 607   0.0000       2.455148        66.8080 
 608   0.0000       2.463945        67.0474 
 609   0.0000       2.467493        67.1439 
 610   0.0000       2.468470        67.1705 
 611   0.0000       2.478803        67.4517 
 612   0.0000       2.484014        67.5935 
 613   0.0000       2.488637        67.7193 
 614   0.0000       2.491904        67.8082 
 615   0.0000       2.495271        67.8998 
 616   0.0000       2.496725        67.9393 
 617   0.0000       2.503002        68.1101 
 618   0.0000       2.505526        68.1788 
 619   0.0000       2.507046        68.2202 
 620   0.0000       2.515677        68.4551 
 621   0.0000       2.519739        68.5656 
 622   0.0000       2.533939        68.9520 
 623   0.0000       2.537257        69.0423 
 624   0.0000       2.541379        69.1544 
 625   0.0000       2.547691        69.3262 
 626   0.0000       2.550812        69.4111 
 627   0.0000       2.557639        69.5969 
 628   0.0000       2.581057        70.2341 
 629   0.0000       2.584131        70.3178 
 630   0.0000       2.607199        70.9455 
 631   0.0000       2.607846        70.9631 
 632   0.0000       2.623681        71.3940 
 633   0.0000       2.635527        71.7163 
 634   0.0000       2.637635        71.7737 
 635   0.0000       2.640142        71.8419 
 636   0.0000       2.641807        71.8872 
 637   0.0000       2.643831        71.9423 
 638   0.0000       2.646080        72.0035 
 639   0.0000       2.649013        72.0833 
 640   0.0000       2.652259        72.1716 
 641   0.0000       2.659943        72.3807 
 642   0.0000       2.664505        72.5049 
 643   0.0000       2.667057        72.5743 
 644   0.0000       2.670149        72.6584 
 645   0.0000       2.677386        72.8554 
 646   0.0000       2.678289        72.8799 
 647   0.0000       2.680878        72.9504 
 648   0.0000       2.683141        73.0120 
[...]
      dxy     :     0.035632
 21 N s       :     3.388432  s :     3.388432
      pz      :     1.161061  p :     3.838007
      px      :     1.503451
      py      :     1.173495
      dz2     :     0.026949  d :     0.218480
      dxz     :     0.050009
      dyz     :     0.008709
      dx2y2   :     0.075518
      dxy     :     0.057295
 22 H s       :     0.733484  s :     0.733484
      pz      :     0.031189  p :     0.050358
      px      :     0.010543
      py      :     0.008626
 23 H s       :     0.751335  s :     0.751335
      pz      :     0.011464  p :     0.045166
      px      :     0.009249
      py      :     0.024453
 24 H s       :     0.739102  s :     0.739102
      pz      :     0.017883  p :     0.048328
      px      :     0.007918
      py      :     0.022526
 25 C s       :     2.945359  s :     2.945359
      pz      :     1.138684  p :     3.350840
      px      :     1.095791
      py      :     1.116364
      dz2     :     0.011851  d :     0.062067
      dxz     :     0.009118
      dyz     :     0.013789
      dx2y2   :     0.008911
      dxy     :     0.018399
 26 C s       :     2.867885  s :     2.867885
      pz      :     0.877132  p :     2.834136
      px      :     1.009625
      py      :     0.947379
      dz2     :     0.016060  d :     0.108364
      dxz     :     0.020572
      dyz     :     0.015839
      dx2y2   :     0.030640
      dxy     :     0.025253
 27 N s       :     3.389886  s :     3.389886
      pz      :     1.207315  p :     3.831804
      px      :     1.342193
      py      :     1.282296
      dz2     :     0.026699  d :     0.204654
      dxz     :     0.041056
      dyz     :     0.029268
      dx2y2   :     0.041597
      dxy     :     0.066033
 28 H s       :     0.727588  s :     0.727588
      pz      :     0.007670  p :     0.052648
      px      :     0.028761
      py      :     0.016216
 29 H s       :     0.753125  s :     0.753125
      pz      :     0.026518  p :     0.045080
      px      :     0.008919
      py      :     0.009643
 30 H s       :     0.753424  s :     0.753424
      pz      :     0.015300  p :     0.045106
      px      :     0.008075
      py      :     0.021731
 31 C s       :     2.943629  s :     2.943629
      pz      :     1.041773  p :     3.351589
      px      :     1.150504
      py      :     1.159311
      dz2     :     0.017671  d :     0.062293
      dxz     :     0.015606
      dyz     :     0.010511
      dx2y2   :     0.005409
      dxy     :     0.013095
 32 C s       :     2.868167  s :     2.868167
      pz      :     1.121811  p :     2.828582
      px      :     0.871115
      py      :     0.835655
      dz2     :     0.036137  d :     0.109157
      dxz     :     0.031477
      dyz     :     0.029890
      dx2y2   :     0.005307
      dxy     :     0.006346
 33 N s       :     3.384427  s :     3.384427
      pz      :     1.445220  p :     3.834122
      px      :     1.216705
      py      :     1.172197
      dz2     :     0.070456  d :     0.224115
      dxz     :     0.071132
      dyz     :     0.053436
      dx2y2   :     0.013945
      dxy     :     0.015146
 34 H s       :     0.734869  s :     0.734869
      pz      :     0.006696  p :     0.049810
      px      :     0.022468
      py      :     0.020646
 35 H s       :     0.753488  s :     0.753488
      pz      :     0.010450  p :     0.045143
      px      :     0.010811
      py      :     0.023882
 36 H s       :     0.738946  s :     0.738946
      pz      :     0.013911  p :     0.048258
      px      :     0.022697
      py      :     0.011650
 37 C s       :     2.940262  s :     2.940262
      pz      :     1.163866  p :     3.351559
      px      :     1.140137
      py      :     1.047556
      dz2     :     0.015006  d :     0.062668
      dxz     :     0.008787
      dyz     :     0.007751
      dx2y2   :     0.014310
      dxy     :     0.016814
 38 C s       :     2.872697  s :     2.872697
      pz      :     0.842249  p :     2.865469
      px      :     0.908229
      py      :     1.114992
      dz2     :     0.010345  d :     0.107147
      dxz     :     0.006781
      dyz     :     0.027799
      dx2y2   :     0.031242
      dxy     :     0.030979
 39 N s       :     3.406535  s :     3.406535
      pz      :     1.155261  p :     3.801618
      px      :     1.213303
      py      :     1.433053
      dz2     :     0.022650  d :     0.187593
      dxz     :     0.011789
      dyz     :     0.043297
      dx2y2   :     0.052561
      dxy     :     0.057296
 40 H s       :     0.744094  s :     0.744094
      pz      :     0.030625  p :     0.046522
      px      :     0.008465
      py      :     0.007432
 41 H s       :     0.751997  s :     0.751997
      pz      :     0.011347  p :     0.044967
      px      :     0.015758
      py      :     0.017861
 42 H s       :     0.739399  s :     0.739399
      pz      :     0.013779  p :     0.047793
      px      :     0.027171
      py      :     0.006843
 43 C s       :     2.946351  s :     2.946351
      pz      :     1.146530  p :     3.340505
      px      :     1.032194
      py      :     1.161782
      dz2     :     0.008801  d :     0.062842
      dxz     :     0.015221
      dyz     :     0.011332
      dx2y2   :     0.019581
      dxy     :     0.007908
 44 C s       :     2.875689  s :     2.875689
      pz      :     0.867566  p :     2.844530
      px      :     1.146738
      py      :     0.830226
      dz2     :     0.013819  d :     0.106507
      dxz     :     0.032294
      dyz     :     0.003909
      dx2y2   :     0.025832
      dxy     :     0.030652
 45 N s       :     3.411862  s :     3.411862
      pz      :     1.188904  p :     3.811554
      px      :     1.469036
      py      :     1.153614
      dz2     :     0.024018  d :     0.204140
      dxz     :     0.059310
      dyz     :     0.010749
      dx2y2   :     0.055715
      dxy     :     0.054347
 46 H s       :     0.752934  s :     0.752934
      pz      :     0.019727  p :     0.044845
      px      :     0.014686
      py      :     0.010432
 47 H s       :     0.752974  s :     0.752974
      pz      :     0.009243  p :     0.044818
      px      :     0.008327
      py      :     0.027248
 48 H s       :     0.752978  s :     0.752978
      pz      :     0.022093  p :     0.044822
      px      :     0.006630
      py      :     0.016099
 49 C s       :     2.946701  s :     2.946701
      pz      :     1.084579  p :     3.340653
      px      :     1.127558
      py      :     1.128516
      dz2     :     0.008589  d :     0.062778
      dxz     :     0.018986
      dyz     :     0.014549
      dx2y2   :     0.006034
      dxy     :     0.014619
 50 C s       :     2.875907  s :     2.875907
      pz      :     1.018788  p :     2.847062
      px      :     0.915396
      py      :     0.912878
      dz2     :     0.028725  d :     0.106350
      dxz     :     0.023765
      dyz     :     0.023066
      dx2y2   :     0.015691
      dxy     :     0.015104
 51 N s       :     3.413176  s :     3.413176
      pz      :     1.340028  p :     3.811261
      px      :     1.235974
      py      :     1.235259
      dz2     :     0.054903  d :     0.200445
      dxz     :     0.047820
      dyz     :     0.043389
      dx2y2   :     0.020193
      dxy     :     0.034140
 52 H s       :     0.753250  s :     0.753250
      pz      :     0.010121  p :     0.044818
      px      :     0.019447
      py      :     0.015251
 53 H s       :     0.753211  s :     0.753211
      pz      :     0.019352  p :     0.044826
      px      :     0.016712
      py      :     0.008763
 54 H s       :     0.753206  s :     0.753206
      pz      :     0.009969  p :     0.044831
      px      :     0.011293
      py      :     0.023570
 55 C s       :     2.944340  s :     2.944340
      pz      :     1.080537  p :     3.346514
      px      :     1.107668
      py      :     1.158309
      dz2     :     0.007707  d :     0.062374
      dxz     :     0.018931
      dyz     :     0.016169
      dx2y2   :     0.011772
      dxy     :     0.007794
 56 C s       :     2.869879  s :     2.869879
      pz      :     1.024907  p :     2.837809
      px      :     0.964189
      py      :     0.848713
      dz2     :     0.029773  d :     0.107987
      dxz     :     0.027133
      dyz     :     0.021727
      dx2y2   :     0.014907
      dxy     :     0.014447
 57 N s       :     3.389225  s :     3.389225
      pz      :     1.356442  p :     3.821930
      px      :     1.286063
      py      :     1.179425
      dz2     :     0.050601  d :     0.202006
      dxz     :     0.062767
      dyz     :     0.038170
      dx2y2   :     0.023264
      dxy     :     0.027205
 58 H s       :     0.752141  s :     0.752141
      pz      :     0.015831  p :     0.044990
      px      :     0.007589
      py      :     0.021570
 59 H s       :     0.735206  s :     0.735206
      pz      :     0.013510  p :     0.049676
      px      :     0.012055
      py      :     0.024111
 60 H s       :     0.752055  s :     0.752055
      pz      :     0.009972  p :     0.045126
      px      :     0.025568
      py      :     0.009586


                      *****************************
                      * MAYER POPULATION ANALYSIS *
                      *****************************

  NA   - Mulliken gross atomic population
  ZA   - Total nuclear charge
  QA   - Mulliken gross atomic charge
  VA   - Mayer's total valence
  BVA  - Mayer's bonded valence
  FA   - Mayer's free valence

  ATOM       NA         ZA         QA         VA         BVA        FA
  0 K     18.0930    19.0000     0.9070     0.2152     0.2152    -0.0000
  1 C      6.6988     6.0000    -0.6988     3.6907     3.6907    -0.0000
  2 C      5.6228     6.0000     0.3772     3.6176     3.6176    -0.0000
  3 N      7.3641     7.0000    -0.3641     2.9236     2.9236     0.0000
  4 H      0.7675     1.0000     0.2325     0.9303     0.9303    -0.0000
  5 H      0.7562     1.0000     0.2438     0.9247     0.9247     0.0000
  6 H      0.7829     1.0000     0.2171     0.9404     0.9404    -0.0000
  7 C      6.5684     6.0000    -0.5684     3.7879     3.7879    -0.0000
  8 C      5.6875     6.0000     0.3125     3.7061     3.7061     0.0000
  9 N      7.3674     7.0000    -0.3674     2.8759     2.8759     0.0000
 10 H      0.7873     1.0000     0.2127     0.9407     0.9407    -0.0000
 11 H      0.7873     1.0000     0.2127     0.9406     0.9406    -0.0000
 12 H      0.7870     1.0000     0.2130     0.9405     0.9405    -0.0000
 13 C      6.6042     6.0000    -0.6042     3.7678     3.7678     0.0000
 14 C      5.6345     6.0000     0.3655     3.5626     3.5626     0.0000
 15 N      7.4006     7.0000    -0.4006     2.7697     2.7697    -0.0000
 16 H      0.7857     1.0000     0.2143     0.9411     0.9411     0.0000
 17 H      0.7690     1.0000     0.2310     0.9376     0.9376    -0.0000
 18 H      0.7880     1.0000     0.2120     0.9409     0.9409     0.0000
 19 C      6.6295     6.0000    -0.6295     3.7890     3.7890    -0.0000
 20 C      5.6051     6.0000     0.3949     3.6586     3.6586    -0.0000
 21 N      7.4464     7.0000    -0.4464     2.8531     2.8531    -0.0000
 22 H      0.7714     1.0000     0.2286     0.9383     0.9383    -0.0000
 23 H      0.7857     1.0000     0.2143     0.9405     0.9405    -0.0000
 24 H      0.7723     1.0000     0.2277     0.9374     0.9374     0.0000
 25 C      6.6216     6.0000    -0.6216     3.7719     3.7719    -0.0000
 26 C      5.6059     6.0000     0.3941     3.4811     3.4811    -0.0000
 27 N      7.4190     7.0000    -0.4190     2.6727     2.6727    -0.0000
 28 H      0.7620     1.0000     0.2380     0.9317     0.9317    -0.0000
 29 H      0.7881     1.0000     0.2119     0.9410     0.9410     0.0000
 30 H      0.7881     1.0000     0.2119     0.9411     0.9411    -0.0000
 31 C      6.6358     6.0000    -0.6358     3.7751     3.7751    -0.0000
 32 C      5.6235     6.0000     0.3765     3.6536     3.6536    -0.0000
 33 N      7.4172     7.0000    -0.4172     2.8250     2.8250     0.0000
 34 H      0.7769     1.0000     0.2231     0.9417     0.9417    -0.0000
 35 H      0.7880     1.0000     0.2120     0.9411     0.9411     0.0000
 36 H      0.7686     1.0000     0.2314     0.9347     0.9347     0.0000
 37 C      6.6633     6.0000    -0.6633     3.7249     3.7249    -0.0000
 38 C      5.6303     6.0000     0.3697     3.6394     3.6394     0.0000
 39 N      7.3794     7.0000    -0.3794     2.8770     2.8770    -0.0000
 40 H      0.7685     1.0000     0.2315     0.9327     0.9327    -0.0000
 41 H      0.7851     1.0000     0.2149     0.9405     0.9405    -0.0000
 42 H      0.7656     1.0000     0.2344     0.9321     0.9321     0.0000
 43 C      6.5773     6.0000    -0.5773     3.7868     3.7868    -0.0000
 44 C      5.6606     6.0000     0.3394     3.6840     3.6840    -0.0000
 45 N      7.3860     7.0000    -0.3860     2.8646     2.8646     0.0000
 46 H      0.7864     1.0000     0.2136     0.9402     0.9402    -0.0000
 47 H      0.7865     1.0000     0.2135     0.9402     0.9402    -0.0000
 48 H      0.7863     1.0000     0.2137     0.9402     0.9402     0.0000
 49 C      6.5767     6.0000    -0.5767     3.7870     3.7870     0.0000
 50 C      5.6619     6.0000     0.3381     3.6763     3.6763     0.0000
 51 N      7.3818     7.0000    -0.3818     2.8575     2.8575     0.0000
 52 H      0.7867     1.0000     0.2133     0.9403     0.9403    -0.0000
 53 H      0.7865     1.0000     0.2135     0.9403     0.9403    -0.0000
 54 H      0.7867     1.0000     0.2133     0.9402     0.9402     0.0000
 55 C      6.6267     6.0000    -0.6267     3.7647     3.7647    -0.0000
 56 C      5.6195     6.0000     0.3805     3.6177     3.6177     0.0000
 57 N      7.4031     7.0000    -0.4031     2.8451     2.8451     0.0000
 58 H      0.7862     1.0000     0.2138     0.9402     0.9402     0.0000
 59 H      0.7677     1.0000     0.2323     0.9366     0.9366    -0.0000
 60 H      0.7839     1.0000     0.2161     0.9380     0.9380     0.0000

  Mayer bond orders larger than 0.100000
B(  1-C ,  2-C ) :   0.8606 B(  1-C ,  4-H ) :   0.9431 B(  1-C ,  5-H ) :   0.9401 
B(  1-C ,  6-H ) :   0.9249 B(  2-C ,  3-N ) :   2.8212 B(  7-C ,  8-C ) :   0.9691 
B(  7-C , 10-H ) :   0.9399 B(  7-C , 11-H ) :   0.9397 B(  7-C , 12-H ) :   0.9397 
B(  8-C ,  9-N ) :   2.7826 B( 13-C , 14-C ) :   0.9585 B( 13-C , 16-H ) :   0.9466 
B( 13-C , 17-H ) :   0.9184 B( 13-C , 18-H ) :   0.9409 B( 14-C , 15-N ) :   2.6546 
B( 19-C , 20-C ) :   0.9648 B( 19-C , 22-H ) :   0.9217 B( 19-C , 23-H ) :   0.9435 
B( 19-C , 24-H ) :   0.9250 B( 20-C , 21-N ) :   2.7540 B( 25-C , 26-C ) :   0.9678 
B( 25-C , 28-H ) :   0.9160 B( 25-C , 29-H ) :   0.9419 B( 25-C , 30-H ) :   0.9457 
B( 26-C , 27-N ) :   2.5560 B( 31-C , 32-C ) :   0.9572 B( 31-C , 34-H ) :   0.9221 
B( 31-C , 35-H ) :   0.9472 B( 31-C , 36-H ) :   0.9256 B( 32-C , 33-N ) :   2.7429 
B( 37-C , 38-C ) :   0.9136 B( 37-C , 40-H ) :   0.9340 B( 37-C , 41-H ) :   0.9371 
B( 37-C , 42-H ) :   0.9292 B( 38-C , 39-N ) :   2.7691 B( 43-C , 44-C ) :   0.9703 
B( 43-C , 46-H ) :   0.9404 B( 43-C , 47-H ) :   0.9396 B( 43-C , 48-H ) :   0.9400 
B( 44-C , 45-N ) :   2.7500 B( 49-C , 50-C ) :   0.9683 B( 49-C , 52-H ) :   0.9402 
B( 49-C , 53-H ) :   0.9409 B( 49-C , 54-H ) :   0.9396 B( 50-C , 51-N ) :   2.7474 
B( 55-C , 56-C ) :   0.9442 B( 55-C , 58-H ) :   0.9434 B( 55-C , 59-H ) :   0.9216 
B( 55-C , 60-H ) :   0.9393 B( 56-C , 57-N ) :   2.7348 

-------
TIMINGS
-------

Total SCF time: 0 days 0 hours 1 min 48 sec 

Total time                  ....     108.552 sec
Sum of individual times     ....     105.946 sec  ( 97.6%)

Fock matrix formation       ....      91.738 sec  ( 84.5%)
  Split-RI-J                ....      15.149 sec  ( 16.5% of F)
  XC integration            ....      44.986 sec  ( 49.0% of F)
    Basis function eval.    ....       8.512 sec  ( 18.9% of XC)
    Density eval.           ....      14.140 sec  ( 31.4% of XC)
    XC-Functional eval.     ....       6.640 sec  ( 14.8% of XC)
    XC-Potential eval.      ....      13.657 sec  ( 30.4% of XC)
Diagonalization             ....       1.393 sec  (  1.3%)
Density matrix formation    ....       0.102 sec  (  0.1%)
Population analysis         ....       0.139 sec  (  0.1%)
Initial guess               ....       1.087 sec  (  1.0%)
Orbital Transformation      ....       0.000 sec  (  0.0%)
Orbital Orthonormalization  ....       0.000 sec  (  0.0%)
DIIS solution               ....       0.593 sec  (  0.5%)
SOSCF solution              ....       1.146 sec  (  1.1%)
Grid generation             ....       9.748 sec  (  9.0%)

Maximum memory used throughout the entire SCF-calculation: 393.9 MB


-------------------------------------------------------------------------------
                          DFT DISPERSION CORRECTION                            
                                                                               
                                 DFTD4 V2.5                                    
-------------------------------------------------------------------------------
The R2SCAN3C composite method is recognized
Using three-body term ABC
Active option DFTDOPT                   ...         5   

Starting D4
-------------------------   ----------------
Dispersion correction           -0.020802034
-------------------------   ----------------

------------------   -----------------
gCP correction             0.028215584
------------------   -----------------

-------------------------   --------------------
FINAL SINGLE POINT ENERGY     -1927.126083830896
-------------------------   --------------------


                            ***************************************
                            *     ORCA property calculations      *
                            ***************************************

                                    ---------------------
                                    Active property flags
                                    ---------------------
   (+) Dipole Moment


------------------------------------------------------------------------------
                       ORCA ELECTRIC PROPERTIES CALCULATION
------------------------------------------------------------------------------

Dipole Moment Calculation                       ... on
Quadrupole Moment Calculation                   ... off
Polarizability Calculation                      ... off
GBWName                                         ... ORCA.gbw
Electron density                                ... ORCA.scfp
The origin for moment calculation is the CENTER OF MASS  = ( 0.072646,  0.022097  0.362081)

-------------
DIPOLE MOMENT
-------------
                                X             Y             Z
Electronic contribution:     -1.89162      -4.47438       0.26745
Nuclear contribution   :      2.98625       5.81244       0.84062
                        -----------------------------------------
Total Dipole Moment    :      1.09464       1.33807       1.10807
                        -----------------------------------------
Magnitude (a.u.)       :      2.05341
Magnitude (Debye)      :      5.21934



--------------------
Rotational spectrum 
--------------------
 
Rotational constants in cm-1:     0.003056     0.002493     0.001694 
Rotational constants in MHz :    91.616911    74.745358    50.769888 

 Dipole components along the rotational axes: 
x,y,z [a.u.] :     1.170263     0.821938     1.473560 
x,y,z [Debye]:     2.974572     2.089199     3.745492 

 

Timings for individual modules:

Sum of individual times         ...      110.704 sec (=   1.845 min)
GTO integral calculation        ...        1.564 sec (=   0.026 min)   1.4 %
SCF iterations                  ...      109.140 sec (=   1.819 min)  98.6 %
                             ****ORCA TERMINATED NORMALLY****
TOTAL RUN TIME: 0 days 0 hours 1 minutes 51 seconds 888 msec
