
                                 *****************
                                 * O   R   C   A *
                                 *****************

                                            #,                                       
                                            ###                                      
                                            ####                                     
                                            #####                                    
                                            ######                                   
                                           ########,                                 
                                     ,,################,,,,,                         
                               ,,#################################,,                 
                          ,,##########################################,,             
                       ,#########################################, ''#####,          
                    ,#############################################,,   '####,        
                  ,##################################################,,,,####,       
                ,###########''''           ''''###############################       
              ,#####''   ,,,,##########,,,,          '''####'''          '####       
            ,##' ,,,,###########################,,,                        '##       
           ' ,,###''''                  '''############,,,                           
         ,,##''                                '''############,,,,        ,,,,,,###''
      ,#''                                            '''#######################'''  
     '                                                          ''''####''''         
             ,#######,   #######,   ,#######,      ##                                
            ,#'     '#,  ##    ##  ,#'     '#,    #''#        ######   ,####,        
            ##       ##  ##   ,#'  ##            #'  '#       #        #'  '#        
            ##       ##  #######   ##           ,######,      #####,   #    #        
            '#,     ,#'  ##    ##  '#,     ,#' ,#      #,         ##   #,  ,#        
             '#######'   ##     ##  '#######'  #'      '#     #####' # '####'        



                  #######################################################
                  #                        -***-                        #
                  #          Department of theory and spectroscopy      #
                  #    Directorship and core code : Frank Neese         #
                  #        Max Planck Institute fuer Kohlenforschung    #
                  #                Kaiser Wilhelm Platz 1               #
                  #                 D-45470 Muelheim/Ruhr               #
                  #                      Germany                        #
                  #                                                     #
                  #                  All rights reserved                #
                  #                        -***-                        #
                  #######################################################


                         Program Version 5.0.4 -  RELEASE  -


 With contributions from (in alphabetic order):
   Daniel Aravena         : Magnetic Suceptibility
   Michael Atanasov       : Ab Initio Ligand Field Theory (pilot matlab implementation)
   Alexander A. Auer      : GIAO ZORA, VPT2 properties, NMR spectrum
   Ute Becker             : Parallelization
   Giovanni Bistoni       : ED, misc. LED, open-shell LED, HFLD
   Martin Brehm           : Molecular dynamics
   Dmytro Bykov           : SCF Hessian
   Vijay G. Chilkuri      : MRCI spin determinant printing, contributions to CSF-ICE
   Dipayan Datta          : RHF DLPNO-CCSD density
   Achintya Kumar Dutta   : EOM-CC, STEOM-CC
   Dmitry Ganyushin       : Spin-Orbit,Spin-Spin,Magnetic field MRCI
   Miquel Garcia          : C-PCM and meta-GGA Hessian, CC/C-PCM, Gaussian charge scheme
   Yang Guo               : DLPNO-NEVPT2, F12-NEVPT2, CIM, IAO-localization
   Andreas Hansen         : Spin unrestricted coupled pair/coupled cluster methods
   Benjamin Helmich-Paris : MC-RPA, TRAH-SCF, COSX integrals
   Lee Huntington         : MR-EOM, pCC
   Robert Izsak           : Overlap fitted RIJCOSX, COSX-SCS-MP3, EOM
   Marcus Kettner         : VPT2
   Christian Kollmar      : KDIIS, OOCD, Brueckner-CCSD(T), CCSD density, CASPT2, CASPT2-K
   Simone Kossmann        : Meta GGA functionals, TD-DFT gradient, OOMP2, MP2 Hessian
   Martin Krupicka        : Initial AUTO-CI
   Lucas Lang             : DCDCAS
   Marvin Lechner         : AUTO-CI (C++ implementation), FIC-MRCC
   Dagmar Lenk            : GEPOL surface, SMD
   Dimitrios Liakos       : Extrapolation schemes; Compound Job, initial MDCI parallelization
   Dimitrios Manganas     : Further ROCIS development; embedding schemes
   Dimitrios Pantazis     : SARC Basis sets
   Anastasios Papadopoulos: AUTO-CI, single reference methods and gradients
   Taras Petrenko         : DFT Hessian,TD-DFT gradient, ASA, ECA, R-Raman, ABS, FL, XAS/XES, NRVS
   Peter Pinski           : DLPNO-MP2, DLPNO-MP2 Gradient
   Christoph Reimann      : Effective Core Potentials
   Marius Retegan         : Local ZFS, SOC
   Christoph Riplinger    : Optimizer, TS searches, QM/MM, DLPNO-CCSD(T), (RO)-DLPNO pert. Triples
   Tobias Risthaus        : Range-separated hybrids, TD-DFT gradient, RPA, STAB
   Michael Roemelt        : Original ROCIS implementation
   Masaaki Saitow         : Open-shell DLPNO-CCSD energy and density
   Barbara Sandhoefer     : DKH picture change effects
   Avijit Sen             : IP-ROCIS
   Kantharuban Sivalingam : CASSCF convergence, NEVPT2, FIC-MRCI
   Bernardo de Souza      : ESD, SOC TD-DFT
   Georgi Stoychev        : AutoAux, RI-MP2 NMR, DLPNO-MP2 response
   Willem Van den Heuvel  : Paramagnetic NMR
   Boris Wezisla          : Elementary symmetry handling
   Frank Wennmohs         : Technical directorship


 We gratefully acknowledge several colleagues who have allowed us to
 interface, adapt or use parts of their codes:
   Stefan Grimme, W. Hujo, H. Kruse, P. Pracht,  : VdW corrections, initial TS optimization,
                  C. Bannwarth, S. Ehlert          DFT functionals, gCP, sTDA/sTD-DF
   Ed Valeev, F. Pavosevic, A. Kumar             : LibInt (2-el integral package), F12 methods
   Garnet Chan, S. Sharma, J. Yang, R. Olivares  : DMRG
   Ulf Ekstrom                                   : XCFun DFT Library
   Mihaly Kallay                                 : mrcc  (arbitrary order and MRCC methods)
   Jiri Pittner, Ondrej Demel                    : Mk-CCSD
   Frank Weinhold                                : gennbo (NPA and NBO analysis)
   Christopher J. Cramer and Donald G. Truhlar   : smd solvation model
   Lars Goerigk                                  : TD-DFT with DH, B97 family of functionals
   V. Asgeirsson, H. Jonsson                     : NEB implementation
   FAccTs GmbH                                   : IRC, NEB, NEB-TS, DLPNO-Multilevel, CI-OPT
                                                   MM, QMMM, 2- and 3-layer-ONIOM, Crystal-QMMM,
                                                   LR-CPCM, SF, NACMEs, symmetry and pop. for TD-DFT,
                                                   nearIR, NL-DFT gradient (VV10), updates on ESD,
                                                   ML-optimized integration grids
   S Lehtola, MJT Oliveira, MAL Marques          : LibXC Library
   Liviu Ungur et al                             : ANISO software


 Your calculation uses the libint2 library for the computation of 2-el integrals
 For citations please refer to: http://libint.valeyev.net

 Your ORCA version has been built with support for libXC version: 5.1.0
 For citations please refer to: https://tddft.org/programs/libxc/

 This ORCA versions uses:
   CBLAS   interface :  Fast vector & matrix operations
   LAPACKE interface :  Fast linear algebra routines
   SCALAPACK package :  Parallel linear algebra routines
   Shared memory     :  Shared parallel matrices
   BLAS/LAPACK       :  OpenBLAS 0.3.15  USE64BITINT DYNAMIC_ARCH NO_AFFINITY SkylakeX SINGLE_THREADED
        Core in use  :  SkylakeX
   Copyright (c) 2011-2014, The OpenBLAS Project




***************************************
The coordinates will be read from file: xtbopt.xyz
***************************************


Your calculation utilizes the geometrical counterpoise correction gCP
Please cite in your paper:
H.Kruse, S. Grimme J.Chem.Phys., 136, (2012), 154101 
   

Your calculation utilizes the atom-pairwise dispersion correction
based on tight binding partial charges (D4)
Cite in your paper:
E.Caldeweyher, C.Bannwarth, S.Grimme, J.Chem.Phys., (2017), 147, 034112.
E.Caldeweyher, S.Ehlert, A.Hansen, H.Neugebauer, S.Grimme, J.Chem.Phys., (2018), in progress.
   

Your calculation utilizes the SMD solvation module
Please cite in your paper:
A.V. Marenich, C.J. Cramer, D.G. Truhlar J. Phys. Chem. B, 113, (2009), 6378 

================================================================================

----- Orbital basis set information -----
Your calculation utilizes the basis: def2-mTZVPP
   Stefan Grimme, Andreas Hansen, Sebastian Ehlert, and Jan-Michael Mewes 
   J. Chem. Phys. 154, 000000 (2021). DOI: 10.1063/5.0040021

----- AuxJ basis set information -----
Your calculation utilizes the auxiliary basis: def2/J
   F. Weigend, Phys. Chem. Chem. Phys. 8, 1057 (2006).

================================================================================
                                        WARNINGS
                       Please study these warnings very carefully!
================================================================================

Using LibXC functional ID 497 : Re-regularized SCAN exchange by Furness et al
[ 1]  J. W. Furness, A. D. Kaplan, J. Ning, J. P. Perdew, and J. Sun, J. Phys. Chem. Lett. 11, 8208 (2020)
[ 2]  J. W. Furness, A. D. Kaplan, J. Ning, J. P. Perdew, and J. Sun, J. Phys. Chem. Lett. 11, 9248 (2020)
Using LibXC functional ID 498 : Re-regularized SCAN correlation by Furness et al
[ 1]  J. W. Furness, A. D. Kaplan, J. Ning, J. P. Perdew, and J. Sun, J. Phys. Chem. Lett. 11, 8208 (2020)
[ 2]  J. W. Furness, A. D. Kaplan, J. Ning, J. P. Perdew, and J. Sun, J. Phys. Chem. Lett. 11, 9248 (2020)
Using LibXC functional ID 497 : Re-regularized SCAN exchange by Furness et al
[ 1]  J. W. Furness, A. D. Kaplan, J. Ning, J. P. Perdew, and J. Sun, J. Phys. Chem. Lett. 11, 8208 (2020)
[ 2]  J. W. Furness, A. D. Kaplan, J. Ning, J. P. Perdew, and J. Sun, J. Phys. Chem. Lett. 11, 9248 (2020)
Using LibXC functional ID 498 : Re-regularized SCAN correlation by Furness et al
[ 1]  J. W. Furness, A. D. Kaplan, J. Ning, J. P. Perdew, and J. Sun, J. Phys. Chem. Lett. 11, 8208 (2020)
[ 2]  J. W. Furness, A. D. Kaplan, J. Ning, J. P. Perdew, and J. Sun, J. Phys. Chem. Lett. 11, 9248 (2020)

INFO   : the flag for use of the SHARK integral package has been found!

================================================================================
                                       INPUT FILE
================================================================================
NAME = ORCA.in
|  1> ! r2SCAN-3c ENERGY TightSCF defgrid3 def2/J
|  2> %maxcore 8000
|  3> %PAL NPROCS 8 END
|  4> %CPCM SMD TRUE
|  5>       SMDSOLVENT "MeCN"
|  6> END
|  7> *xyzfile 1 1  xtbopt.xyz
|  8> 
|  9>                          ****END OF INPUT****
================================================================================

                       ****************************
                       * Single Point Calculation *
                       ****************************

---------------------------------
CARTESIAN COORDINATES (ANGSTROEM)
---------------------------------
  K      0.836080    0.606024    1.147732
  C     -3.499864    3.128649    2.058254
  C     -2.340002    2.389758    1.688239
  N     -1.405559    1.799794    1.389504
  H     -4.140276    3.256009    1.184035
  H     -3.205596    4.104079    2.441211
  H     -4.047151    2.582787    2.826017
  C      1.439410    4.209087   -0.329069
  C      1.104235    3.108247   -1.161794
  N      0.832551    2.247516   -1.869871
  H      2.407802    4.609555   -0.624117
  H      1.483261    3.881136    0.707449
  H      0.676159    4.980666   -0.438446
  C     -1.401188   -0.146492   -2.561604
  C     -1.999912   -0.708276   -1.398861
  N     -2.499155   -1.182747   -0.482256
  H     -2.115957    0.508490   -3.057884
  H     -1.113323   -0.953160   -3.236566
  H     -0.521718    0.425926   -2.270703
  C      2.003434    1.411287    4.871074
  C      1.879872    2.109258    3.637681
  N      1.777186    2.680645    2.650616
  H      1.400187    0.506525    4.823061
  H      1.653611    2.041511    5.686983
  H      3.046004    1.140931    5.041304
  C      1.740671   -2.951402   -2.353064
  C      1.344551   -2.149002   -1.247113
  N      1.020498   -1.501652   -0.359710
  H      0.985854   -2.896355   -3.137939
  H      1.857011   -3.982255   -2.021313
  H      2.700528   -2.597771   -2.730811
  C     -1.235759   -2.664265    2.126214
  C     -0.443738   -1.692980    2.795308
  N      0.203414   -0.915822    3.332957
  H     -1.658641   -2.211833    1.229687
  H     -2.044373   -3.010115    2.769208
  H     -0.612810   -3.510663    1.844725
  C      4.078824    0.798580   -2.382807
  C      3.609971    0.715132   -1.042843
  N      3.236885    0.637076    0.037566
  H      4.870113    1.544947   -2.451719
  H      3.253442    1.085148   -3.031270
  H      4.464421   -0.175696   -2.686200
  C      4.305316   -2.496098    1.313957
  C      3.796764   -3.649352    0.643130
  N      3.397388   -4.578678    0.104506
  H      4.135794   -2.591395    2.385039
  H      3.796100   -1.607794    0.939710
  H      5.375092   -2.405237    1.123913
  C     -5.992316    3.230064   -3.091407
  C     -5.673687    3.211333   -1.701157
  N     -5.408782    3.196576   -0.586067
  H     -6.532118    2.321007   -3.353246
  H     -5.065921    3.281650   -3.666460
  H     -6.610524    4.098016   -3.315973
  C     -3.114246    7.678199   -1.552459
  C     -1.939931    6.924678   -1.237066
  N     -0.997431    6.325524   -0.985543
  H     -3.879851    7.488615   -0.801131
  H     -3.484299    7.378086   -2.532076
  H     -2.872051    8.740366   -1.564500
  C     -2.264955   -4.634154   -5.691695
  C     -1.484440   -3.649385   -5.013153
  N     -0.857087   -2.859321   -4.470520
  H     -2.129853   -5.600834   -5.207520
  H     -1.945913   -4.700153   -6.731332
  H     -3.317437   -4.355668   -5.649538
  C      6.601761   -3.906589   -1.585805
  C      5.686033   -3.029338   -2.237842
  N      4.951225   -2.318655   -2.755963
  H      6.046434   -4.721899   -1.123361
  H      7.137384   -3.349557   -0.815980
  H      7.310205   -4.306910   -2.309330
  C     -3.236805   -4.518636   -0.136698
  C     -4.219112   -5.163028   -0.949822
  N     -4.998024   -5.683551   -1.610274
  H     -2.280018   -5.023908   -0.258861
  H     -3.539296   -4.562259    0.909717
  H     -3.140271   -3.475448   -0.437848
  C     -0.553942    2.777031   -4.840961
  C     -1.945715    3.050634   -4.682000
  N     -3.064633    3.263377   -4.555038
  H     -0.426038    1.879727   -5.445057
  H     -0.103254    2.624549   -3.858039
  H     -0.072049    3.620213   -5.333914
  C      7.723002    5.416967   -2.893021
  C      6.924303    4.241410   -2.728476
  N      6.284513    3.301658   -2.593467
  H      8.710722    5.138197   -3.258459
  H      7.819997    5.927347   -1.935392
  H      7.245644    6.082190   -3.611643
  C     -9.740365   -3.770999   -0.400172
  C     -8.722424   -2.817152   -0.080916
  N     -7.909336   -2.052797    0.174644
  H    -10.385459   -3.365670   -1.178798
  H    -10.333307   -3.982203    0.488938
  H     -9.275400   -4.689816   -0.755576
  C      6.537398   -0.254074    7.740495
  C      5.713943    0.126381    6.634105
  N      5.053887    0.430885    5.749578
  H      7.207806    0.566020    7.995156
  H      7.122695   -1.133504    7.474201
  H      5.906025   -0.485251    8.597826
  C      8.261709    0.562826    1.507192
  C      7.909305   -0.762482    1.107053
  N      7.623899   -1.824383    0.785703
  H      8.646667    1.108927    0.646891
  H      9.025356    0.518584    2.282810
  H      7.377357    1.069006    1.892868
  C     -5.960219   -4.482599    4.735074
  C     -4.820443   -4.430794    3.874226
  N     -3.905984   -4.385531    3.186489
  H     -6.809389   -4.017985    4.235069
  H     -5.742710   -3.939872    5.654340
  H     -6.195010   -5.520281    4.969364
  C     -5.407080    0.043706    1.019460
  C     -5.437587    0.218037    2.435774
  N     -5.457017    0.366125    3.572707
  H     -6.188887   -0.655336    0.723552
  H     -4.434336   -0.345593    0.718730
  H     -5.574767    1.004243    0.532518

----------------------------
CARTESIAN COORDINATES (A.U.)
----------------------------
  NO LB      ZA    FRAG     MASS         X           Y           Z
   0 K    19.0000    0    39.100    1.579963    1.145220    2.168899
   1 C     6.0000    0    12.011   -6.613784    5.912290    3.889536
   2 C     6.0000    0    12.011   -4.421964    4.515989    3.190309
   3 N     7.0000    0    14.007   -2.656122    3.401117    2.625782
   4 H     1.0000    0     1.008   -7.823988    6.152965    2.237501
   5 H     1.0000    0     1.008   -6.057698    7.755585    4.613221
   6 H     1.0000    0     1.008   -7.648007    4.880760    5.340399
   7 C     6.0000    0    12.011    2.720090    7.954022   -0.621851
   8 C     6.0000    0    12.011    2.086702    5.873735   -2.195473
   9 N     7.0000    0    14.007    1.573294    4.247190   -3.533544
  10 H     1.0000    0     1.008    4.550087    8.710797   -1.179410
  11 H     1.0000    0     1.008    2.802956    7.334283    1.336885
  12 H     1.0000    0     1.008    1.277755    9.412094   -0.828543
  13 C     6.0000    0    12.011   -2.647862   -0.276830   -4.840730
  14 C     6.0000    0    12.011   -3.779285   -1.338447   -2.643464
  15 N     7.0000    0    14.007   -4.722719   -2.235068   -0.911331
  16 H     1.0000    0     1.008   -3.998579    0.960907   -5.778564
  17 H     1.0000    0     1.008   -2.103875   -1.801212   -6.116224
  18 H     1.0000    0     1.008   -0.985905    0.804883   -4.291006
  19 C     6.0000    0    12.011    3.785941    2.666945    9.204995
  20 C     6.0000    0    12.011    3.552444    3.985921    6.874220
  21 N     7.0000    0    14.007    3.358395    5.065685    5.008938
  22 H     1.0000    0     1.008    2.645970    0.957193    9.114264
  23 H     1.0000    0     1.008    3.124872    3.857897   10.746840
  24 H     1.0000    0     1.008    5.756114    2.156046    9.526684
  25 C     6.0000    0    12.011    3.289392   -5.577342   -4.446646
  26 C     6.0000    0    12.011    2.540833   -4.061025   -2.356703
  27 N     7.0000    0    14.007    1.928463   -2.837712   -0.679754
  28 H     1.0000    0     1.008    1.862994   -5.473317   -5.929845
  29 H     1.0000    0     1.008    3.509243   -7.525372   -3.819727
  30 H     1.0000    0     1.008    5.103258   -4.909076   -5.160486
  31 C     6.0000    0    12.011   -2.335246   -5.034732    4.017961
  32 C     6.0000    0    12.011   -0.838543   -3.199269    5.282366
  33 N     7.0000    0    14.007    0.384397   -1.730652    6.298376
  34 H     1.0000    0     1.008   -3.134378   -4.179758    2.323772
  35 H     1.0000    0     1.008   -3.863304   -5.688294    5.233045
  36 H     1.0000    0     1.008   -1.158043   -6.634191    3.486025
  37 C     6.0000    0    12.011    7.707860    1.509098   -4.502852
  38 C     6.0000    0    12.011    6.821857    1.351404   -1.970688
  39 N     7.0000    0    14.007    6.116826    1.203899    0.070990
  40 H     1.0000    0     1.008    9.203180    2.919527   -4.633077
  41 H     1.0000    0     1.008    6.148115    2.050632   -5.728270
  42 H     1.0000    0     1.008    8.436532   -0.332018   -5.076182
  43 C     6.0000    0    12.011    8.135869   -4.716942    2.483018
  44 C     6.0000    0    12.011    7.174845   -6.896276    1.215340
  45 N     7.0000    0    14.007    6.420133   -8.652448    0.197488
  46 H     1.0000    0     1.008    7.815517   -4.897027    4.507071
  47 H     1.0000    0     1.008    7.173589   -3.038291    1.775794
  48 H     1.0000    0     1.008   10.157452   -4.545240    2.123888
  49 C     6.0000    0    12.011  -11.323835    6.103936   -5.841913
  50 C     6.0000    0    12.011  -10.721715    6.068540   -3.214720
  51 N     7.0000    0    14.007  -10.221117    6.040654   -1.107507
  52 H     1.0000    0     1.008  -12.343913    4.386068   -6.336716
  53 H     1.0000    0     1.008   -9.573204    6.201419   -6.928605
  54 H     1.0000    0     1.008  -12.492080    7.744128   -6.266282
  55 C     6.0000    0    12.011   -5.885072   14.509694   -2.933722
  56 C     6.0000    0    12.011   -3.665939   13.085746   -2.337716
  57 N     7.0000    0    14.007   -1.884871   11.953507   -1.862407
  58 H     1.0000    0     1.008   -7.331855   14.151432   -1.513918
  59 H     1.0000    0     1.008   -6.584372   13.942562   -4.784930
  60 H     1.0000    0     1.008   -5.427390   16.516897   -2.956476
  61 C     6.0000    0    12.011   -4.280145   -8.757283  -10.755745
  62 C     6.0000    0    12.011   -2.805184   -6.896337   -9.473486
  63 N     7.0000    0    14.007   -1.619659   -5.403334   -8.448059
  64 H     1.0000    0     1.008   -4.024839  -10.584042   -9.840787
  65 H     1.0000    0     1.008   -3.677242   -8.882002  -12.720373
  66 H     1.0000    0     1.008   -6.269048   -8.231020  -10.676079
  67 C     6.0000    0    12.011   12.475521   -7.382383   -2.996738
  68 C     6.0000    0    12.011   10.745045   -5.724619   -4.228909
  69 N     7.0000    0    14.007    9.356458   -4.381622   -5.208016
  70 H     1.0000    0     1.008   11.426104   -8.923095   -2.122845
  71 H     1.0000    0     1.008   13.487701   -6.329746   -1.541979
  72 H     1.0000    0     1.008   13.814285   -8.138880   -4.364001
  73 C     6.0000    0    12.011   -6.116676   -8.538985   -0.258322
  74 C     6.0000    0    12.011   -7.972966   -9.756709   -1.794903
  75 N     7.0000    0    14.007   -9.444896  -10.740354   -3.042976
  76 H     1.0000    0     1.008   -4.308610   -9.493810   -0.489175
  77 H     1.0000    0     1.008   -6.688301   -8.621421    1.719116
  78 H     1.0000    0     1.008   -5.934252   -6.567645   -0.827413
  79 C     6.0000    0    12.011   -1.046799    5.247828   -9.148091
  80 C     6.0000    0    12.011   -3.676868    5.764864   -8.847698
  81 N     7.0000    0    14.007   -5.791317    6.166890   -8.607775
  82 H     1.0000    0     1.008   -0.805095    3.552170  -10.289666
  83 H     1.0000    0     1.008   -0.195121    4.959679   -7.290638
  84 H     1.0000    0     1.008   -0.136153    6.841212  -10.079637
  85 C     6.0000    0    12.011   14.594359   10.236585   -5.467017
  86 C     6.0000    0    12.011   13.085036    8.015103   -5.156072
  87 N     7.0000    0    14.007   11.876009    6.239229   -4.900943
  88 H     1.0000    0     1.008   16.460878    9.709785   -6.157595
  89 H     1.0000    0     1.008   14.777652   11.201062   -3.657361
  90 H     1.0000    0     1.008   13.692284   11.493673   -6.825017
  91 C     6.0000    0    12.011  -18.406622   -7.126156   -0.756216
  92 C     6.0000    0    12.011  -16.482992   -5.323646   -0.152910
  93 N     7.0000    0    14.007  -14.946479   -3.879225    0.330029
  94 H     1.0000    0     1.008  -19.625674   -6.360195   -2.227606
  95 H     1.0000    0     1.008  -19.527120   -7.525274    0.923959
  96 H     1.0000    0     1.008  -17.527965   -8.862468   -1.427832
  97 C     6.0000    0    12.011   12.353892   -0.480130   14.627415
  98 C     6.0000    0    12.011   10.797787    0.238825   12.536642
  99 N     7.0000    0    14.007    9.550462    0.814255   10.865127
 100 H     1.0000    0     1.008   13.620780    1.069623   15.108656
 101 H     1.0000    0     1.008   13.459944   -2.142011   14.124192
 102 H     1.0000    0     1.008   11.160771   -0.916991   16.247536
 103 C     6.0000    0    12.011   15.612366    1.063587    2.848179
 104 C     6.0000    0    12.011   14.946421   -1.440881    2.092027
 105 N     7.0000    0    14.007   14.407082   -3.447585    1.484764
 106 H     1.0000    0     1.008   16.339832    2.095568    1.222447
 107 H     1.0000    0     1.008   17.055450    0.979982    4.313885
 108 H     1.0000    0     1.008   13.941185    2.020129    3.577002
 109 C     6.0000    0    12.011  -11.263182   -8.470885    8.947992
 110 C     6.0000    0    12.011   -9.109318   -8.372987    7.321226
 111 N     7.0000    0    14.007   -7.381240   -8.287452    6.021591
 112 H     1.0000    0     1.008  -12.867881   -7.592892    8.003121
 113 H     1.0000    0     1.008  -10.852150   -7.445280   10.685155
 114 H     1.0000    0     1.008  -11.706872  -10.431820    9.390737
 115 C     6.0000    0    12.011  -10.217900    0.082592    1.926499
 116 C     6.0000    0    12.011  -10.275551    0.412030    4.602947
 117 N     7.0000    0    14.007  -10.312268    0.691875    6.751437
 118 H     1.0000    0     1.008  -11.695301   -1.238406    1.367316
 119 H     1.0000    0     1.008   -8.379681   -0.653075    1.358204
 120 H     1.0000    0     1.008  -10.534783    1.897744    1.006313

--------------------------------
INTERNAL COORDINATES (ANGSTROEM)
--------------------------------
 K      0   0   0     0.000000000000     0.00000000     0.00000000
 C      1   0   0     5.098342633878     0.00000000     0.00000000
 C      2   1   0     1.424130973614     5.27611000     0.00000000
 N      3   2   1     1.144763762375   179.76529766   278.75969007
 H      2   1   4     1.091149969016   114.44472758   348.42274621
 H      2   1   4     1.088445218830   106.04104327   227.44580667
 H      2   1   4     1.089472208359   107.76839773   110.04443198
 C      1   2   6     3.940432800605    75.20976004   315.11988760
 C      8   1   2     1.420430280742    58.32735253   259.25265905
 N      9   8   1     1.147188717459   177.72888409   176.42165130
 H      8   1   2     1.088674456104   125.03820156   166.40266806
 H      8   1   2     1.088046521081    51.20995667    78.77926111
 H      8   1   2     1.090801692793   125.25618692   351.00245819
 C     10   9   8     3.346544803645   145.32514889   239.78615863
 C     14  10   9     1.423391089817   113.21936254   325.85103437
 N     15  14  10     1.146530341238   178.29102293   183.33555458
 H     14  10   9     1.089123648097    95.85591048    79.98243609
 H     14  10   9     1.090483693942   118.74553133   196.18677412
 H     14  10   9     1.088922799744    13.98551422   249.81510135
 C      1   2   6     3.984273624885    88.98457561    52.55488814
 C     20   1   2     1.422564628683    42.56388000   284.98292224
 N     21  20   1     1.145130553061   179.41907759   143.92843047
 H     20   1   2     1.088487874533    68.18604879    86.37053923
 H     20   1   2     1.088699851922   136.31989501   350.33573176
 H     20   1   2     1.090423692211   112.08067974   189.19773289
 C     18  14  10     3.594277517320   117.95130928    58.16526490
 C     26  18  14     1.422632436716    69.90528369    12.19057760
 N     27  26  18     1.145231815555   179.69514444    11.45621686
 H     26  18  14     1.090325348209    40.99937096   178.13769619
 H     26  18  14     1.089151941707   133.30497637   109.85392138
 H     26  18  14     1.090446351244   115.68985863   269.73392084
 C     16  15  14     3.255023515735   131.30033445   120.24510246
 C     32  16  15     1.420696966483   106.41692834    62.23581825
 N     33  32  16     1.145358914126   179.47001055   242.94279365
 H     32  16  15     1.089626153960     2.59633433   272.17512478
 H     32  16  15     1.089454109879   109.23058823   181.73193709
 H     32  16  15     1.087974989049   111.65324891   302.75206671
 C     10   9   8     3.591768785834   100.18184492    99.53182235
 C     38  10   9     1.422071955778    65.86587596    64.46394584
 N     39  38  10     1.145674846595   179.40925218   141.26908397
 H     38  10   9     1.089931312619   112.88911140   322.09517668
 H     38  10   9     1.088062682502    45.02923797   227.00695822
 H     38  10   9     1.090846775481   136.01290730   157.35952436
 C     40  39  38     3.547886470051   107.53969070     1.63574157
 C     44  40  39     1.427805047070   115.91323575   298.08398475
 N     45  44  40     1.145977505275   179.52268412   133.08331506
 H     44  40  39     1.088594047780   112.60560873   170.70639414
 H     44  40  39     1.090158673645    10.33898853   246.10080031
 H     44  40  39     1.090317597877    99.15885590    55.17859845
 C      5   2   1     4.659412645431   165.42199174   358.71238746
 C     50   5   2     1.426419175763    10.56700236   145.15458020
 N     51  50   5     1.146218249808   179.54469065   356.07137830
 H     50   5   2     1.089187414924   114.97531196    84.32256983
 H     50   5   2     1.091582759412    98.38348704   328.19256355
 H     50   5   2     1.089014385714   114.23131320   212.20427049
 C     13   8   1     4.783814851370   167.58828702   297.91763580
 C     56  13   8     1.430483057862     2.77718497   232.37116602
 N     57  56  13     1.144795902413   179.75908009   184.73411026
 H     56  13   8     1.089305301307   107.34515717    92.33468727
 H     56  13   8     1.089338071781   108.85812980   333.91371051
 H     56  13   8     1.089495605247   112.09720715   212.59551315
 C     29  26  18     4.484348023956   153.15530068   234.21625076
 C     62  29  26     1.428074108970    20.92899866   156.36612636
 N     63  62  29     1.145522541559   179.89549099    87.80431046
 H     62  29  26     1.089562742560    90.04971001   357.98484134
 H     62  29  26     1.089490017109   110.76982824   247.03638997
 H     62  29  26     1.089518231627   125.39374701   111.85403684
 C     49  44  40     3.331868753681   117.73803927   260.63844985
 C     68  49  44     1.425931051824    81.85008861    60.37139132
 N     69  68  49     1.146064452663   179.58717900    32.08275302
 H     68  49  44     1.089482884259    78.71700678   308.92869992
 H     68  49  44     1.090782488495    51.44265513   182.55082528
 H     68  49  44     1.088869516422   161.01371789   190.16284996
 C     35  32  37     3.111101520493   104.49882130    58.04806835
 C     74  35  32     1.428753381876   158.92831197   154.50752492
 N     75  74  35     1.146230479293   179.36324311   110.75155158
 H     74  35  32     1.088882523288    86.99678401   296.29296365
 H     74  35  32     1.090132379269    75.45412118    47.27362416
 H     74  35  32     1.090069578401    50.71540211   177.82533247
 C     17  14  10     3.281087046363   110.54813691    37.81744368
 C     80  17  14     1.427290493288    66.90812604   192.12332972
 N     81  80  17     1.146017960885   179.64416409   321.41711332
 H     80  17  14     1.089240618119    77.74453579    74.45305538
 H     80  17  14     1.092019226080    67.09444305   316.76076065
 H     80  17  14     1.089118776385   172.69523071   253.75571731
 C     41  38  10     4.829727170520   169.61373145   343.27841348
 C     86  41  38     1.430709966334     2.56848494   156.41374852
 N     87  86  41     1.144854372210   179.82329786   255.86661861
 H     86  41  38     1.089425457823   111.16476665   207.54380711
 H     86  41  38     1.089471134686   110.35560425    85.83074768
 H     86  41  38     1.089408125593   106.91700669   326.89471732
 C     76  75  74     5.254712206548   108.37930947   198.78258170
 C     92  76  75     1.431066969431    69.63574389    25.22004860
 N     93  92  76     1.144841414542   179.90971329   165.49178696
 H     92  76  75     1.089356024454   120.34882671   126.39928843
 H     92  76  75     1.089359711148   127.48979368   285.73949717
 H     92  76  75     1.089371048599    39.88633153   210.76786166
 C     25  20   1     4.628336625588   152.50116210   209.70081416
 C     98  25  20     1.430706814414    15.13518695   171.70222910
 N     99  98  25     1.144895704390   179.93065286   352.06654888
 H     98  25  20     1.089427860509   111.94056755   255.56111173
 H     98  25  20     1.089441383288   120.39944782   124.71398568
 H     98  25  20     1.089537206027    94.91695242     8.78464499
 C     49  44  40     4.157987152000   136.43338862    42.27064566
 C    104  49  44     1.428544229000    30.76032605   182.66543531
 N    105 104  49     1.145581595468   179.85088514    27.07139368
 H    104  49  44     1.089282230961   122.03331110   255.94758113
 H    104  49  44     1.089356489775   121.55414827   107.96484624
 H    104  49  44     1.089514600389    78.50758940     1.86519599
 C     78  74  35     4.527755015834   163.46532849   117.66196796
 C    110  78  74     1.429276297047    20.83519291   200.05151632
 N    111 110  78     1.145105944861   179.77835554   130.22639402
 H    110  78  74     1.089477175385    92.09222759   346.30692340
 H    110  78  74     1.089455851650   127.94484341   229.70738855
 H    110  78  74     1.089404723588   106.27081235    97.52262646
 C     94  93  92     3.371990976070   176.43589925   147.59101786
 C    116  94  93     1.427329600881   107.97986914   289.99141253
 N    117 116  94     1.146700636397   179.52292944   199.78988857
 H    116  94  93     1.089698544448     2.17281825    61.73484897
 H    116  94  93     1.090055581474   111.77998036    50.69426764
 H    116  94  93     1.089891492934   108.77426922   171.34367213

---------------------------
INTERNAL COORDINATES (A.U.)
---------------------------
 K      0   0   0     0.000000000000     0.00000000     0.00000000
 C      1   0   0     9.634471314924     0.00000000     0.00000000
 C      2   1   0     2.691217518965     5.27611000     0.00000000
 N      3   2   1     2.163289998926   179.76529766   278.75969007
 H      2   1   4     2.061974612477   114.44472758   348.42274621
 H      2   1   4     2.056863375364   106.04104327   227.44580667
 H      2   1   4     2.058804104317   107.76839773   110.04443198
 C      1   2   6     7.446338842264    75.20976004   315.11988760
 C      8   1   2     2.684224222932    58.32735253   259.25265905
 N      9   8   1     2.167872499922   177.72888409   176.42165130
 H      8   1   2     2.057296571033   125.03820156   166.40266806
 H      8   1   2     2.056109945810    51.20995667    78.77926111
 H      8   1   2     2.061316465797   125.25618692   351.00245819
 C     10   9   8     6.324053173786   145.32514889   239.78615863
 C     14  10   9     2.689819341219   113.21936254   325.85103437
 N     15  14  10     2.166628349171   178.29102293   183.33555458
 H     14  10   9     2.058145420881    95.85591048    79.98243609
 H     14  10   9     2.060715535057   118.74553133   196.18677412
 H     14  10   9     2.057765872499    13.98551422   249.81510135
 C      1   2   6     7.529185993639    88.98457561    52.55488814
 C     20   1   2     2.688257556014    42.56388000   284.98292224
 N     21  20   1     2.163983132872   179.41907759   143.92843047
 H     20   1   2     2.056943982961    68.18604879    86.37053923
 H     20   1   2     2.057344562173   136.31989501   350.33573176
 H     20   1   2     2.060602148218   112.08067974   189.19773289
 C     18  14  10     6.792200157046   117.95130928    58.16526490
 C     26  18  14     2.688385694626    69.90528369    12.19057760
 N     27  26  18     2.164174491252   179.69514444    11.45621686
 H     26  18  14     2.060416304988    40.99937096   178.13769619
 H     26  18  14     2.058198888055   133.30497637   109.85392138
 H     26  18  14     2.060644967584   115.68985863   269.73392084
 C     16  15  14     6.151103004212   131.30033445   120.24510246
 C     32  16  15     2.684728185945   106.41692834    62.23581825
 N     33  32  16     2.164414672743   179.47001055   242.94279365
 H     32  16  15     2.059095019343     2.59633433   272.17512478
 H     32  16  15     2.058769903147   109.23058823   181.73193709
 H     32  16  15     2.055974769858   111.65324891   302.75206671
 C     10   9   8     6.787459341593   100.18184492    99.53182235
 C     38  10   9     2.687326539150    65.86587596    64.46394584
 N     39  38  10     2.165011698587   179.40925218   141.26908397
 H     38  10   9     2.059671685635   112.88911140   322.09517668
 H     38  10   9     2.056140486469    45.02923797   227.00695822
 H     38  10   9     2.061401659731   136.01290730   157.35952436
 C     40  39  38     6.704533782641   107.53969070     1.63574157
 C     44  40  39     2.698160511592   115.91323575   298.08398475
 N     45  44  40     2.165583640603   179.52268412   133.08331506
 H     44  40  39     2.057144621322   112.60560873   170.70639414
 H     44  40  39     2.060101335708    10.33898853   246.10080031
 H     44  40  39     2.060401658983    99.15885590    55.17859845
 C      5   2   1     8.805013844795   165.42199174   358.71238746
 C     50   5   2     2.695541594366    10.56700236   145.15458020
 N     51  50   5     2.166038581841   179.54469065   356.07137830
 H     50   5   2     2.058265922719   114.97531196    84.32256983
 H     50   5   2     2.062792467799    98.38348704   328.19256355
 H     50   5   2     2.057938944901   114.23131320   212.20427049
 C     13   8   1     9.040099944474   167.58828702   297.91763580
 C     56  13   8     2.703221218573     2.77718497   232.37116602
 N     57  56  13     2.163350734796   179.75908009   184.73411026
 H     56  13   8     2.058488695699   107.34515717    92.33468727
 H     56  13   8     2.058550622920   108.85812980   333.91371051
 H     56  13   8     2.058848318027   112.09720715   212.59551315
 C     29  26  18     8.474189654467   153.15530068   234.21625076
 C     62  29  26     2.698668964897    20.92899866   156.36612636
 N     63  62  29     2.164723883780   179.89549099    87.80431046
 H     62  29  26     2.058975189163    90.04971001   357.98484134
 H     62  29  26     2.058837757977   110.76982824   247.03638997
 H     62  29  26     2.058891075690   125.39374701   111.85403684
 C     49  44  40     6.296319458626   117.73803927   260.63844985
 C     68  49  44     2.694619173801    81.85008861    60.37139132
 N     69  68  49     2.165747947355   179.58717900    32.08275302
 H     68  49  44     2.058824278844    78.71700678   308.92869992
 H     68  49  44     2.061280174932    51.44265513   182.55082528
 H     68  49  44     2.057665181612   161.01371789   190.16284996
 C     35  32  37     5.879129848557   104.49882130    58.04806835
 C     74  35  32     2.699952604660   158.92831197   154.50752492
 N     75  74  35     2.166061692218   179.36324311   110.75155158
 H     74  35  32     2.057689761028    86.99678401   296.29296365
 H     74  35  32     2.060051646538    75.45412118    47.27362416
 H     74  35  32     2.059932970097    50.71540211   177.82533247
 C     17  14  10     6.200355939183   110.54813691    37.81744368
 C     80  17  14     2.697188145864    66.90812604   192.12332972
 N     81  80  17     2.165660090627   179.64416409   321.41711332
 H     80  17  14     2.058366462188    77.74453579    74.45305538
 H     80  17  14     2.063617270267    67.09444305   316.76076065
 H     80  17  14     2.058136214679   172.69523071   253.75571731
 C     41  38  10     9.126861653841   169.61373145   343.27841348
 C     86  41  38     2.703650013444     2.56848494   156.41374852
 N     87  86  41     2.163461226699   179.82329786   255.86661861
 H     86  41  38     2.058715758607   111.16476665   207.54380711
 H     86  41  38     2.058802075370   110.35560425    85.83074768
 H     86  41  38     2.058683005440   106.91700669   326.89471732
 C     76  75  74     9.929966982950   108.37930947   198.78258170
 C     92  76  75     2.704324651526    69.63574389    25.22004860
 N     93  92  76     2.163436740256   179.90971329   165.49178696
 H     92  76  75     2.058584548556   120.34882671   126.39928843
 H     92  76  75     2.058591515397   127.48979368   285.73949717
 H     92  76  75     2.058612940075    39.88633153   210.76786166
 C     25  20   1     8.746288677958   152.50116210   209.70081416
 C     98  25  20     2.703644057178    15.13518695   171.70222910
 N     99  98  25     2.163539333200   179.93065286   352.06654888
 H     98  25  20     2.058720299026   111.94056755   255.56111173
 H     98  25  20     2.058745853375   120.39944782   124.71398568
 H     98  25  20     2.058926932108    94.91695242     8.78464499
 C     49  44  40     7.857456985643   136.43338862    42.27064566
 C    104  49  44     2.699557363005    30.76032605   182.66543531
 N    105 104  49     2.164835479495   179.85088514    27.07139368
 H    104  49  44     2.058445099063   122.03331110   255.94758113
 H    104  49  44     2.058585427884   121.55414827   107.96484624
 H    104  49  44     2.058884213643    78.50758940     1.86519599
 C     78  74  35     8.556216981415   163.46532849   117.66196796
 C    110  78  74     2.700940771124    20.83519291   200.05151632
 N    111 110  78     2.163936630113   179.77835554   130.22639402
 H    110  78  74     2.058813490636    92.09222759   346.30692340
 H    110  78  74     2.058773194617   127.94484341   229.70738855
 H    110  78  74     2.058676576582   106.27081235    97.52262646
 C     94  93  92     6.372139470826   176.43589925   147.59101786
 C    116  94  93     2.697262048505   107.97986914   289.99141253
 N    117 116  94     2.166950160383   179.52292944   199.78988857
 H    116  94  93     2.059231817540     2.17281825    61.73484897
 H    116  94  93     2.059906519738   111.77998036    50.69426764
 H    116  94  93     2.059596437335   108.77426922   171.34367213

---------------------
BASIS SET INFORMATION
---------------------
There are 4 groups of distinct atoms

 Group   1 Type K   : 17s11p contracted to 6s4p pattern {842111/6311}
 Group   2 Type C   : 11s6p1d contracted to 5s3p1d pattern {62111/411/1}
 Group   3 Type N   : 11s6p2d contracted to 5s3p2d pattern {62111/411/11}
 Group   4 Type H   : 4s1p contracted to 2s1p pattern {31/1}

Atom   0K    basis set group =>   1
Atom   1C    basis set group =>   2
Atom   2C    basis set group =>   2
Atom   3N    basis set group =>   3
Atom   4H    basis set group =>   4
Atom   5H    basis set group =>   4
Atom   6H    basis set group =>   4
Atom   7C    basis set group =>   2
Atom   8C    basis set group =>   2
Atom   9N    basis set group =>   3
Atom  10H    basis set group =>   4
Atom  11H    basis set group =>   4
Atom  12H    basis set group =>   4
Atom  13C    basis set group =>   2
Atom  14C    basis set group =>   2
Atom  15N    basis set group =>   3
Atom  16H    basis set group =>   4
Atom  17H    basis set group =>   4
Atom  18H    basis set group =>   4
Atom  19C    basis set group =>   2
Atom  20C    basis set group =>   2
Atom  21N    basis set group =>   3
Atom  22H    basis set group =>   4
Atom  23H    basis set group =>   4
Atom  24H    basis set group =>   4
Atom  25C    basis set group =>   2
Atom  26C    basis set group =>   2
Atom  27N    basis set group =>   3
Atom  28H    basis set group =>   4
Atom  29H    basis set group =>   4
Atom  30H    basis set group =>   4
Atom  31C    basis set group =>   2
Atom  32C    basis set group =>   2
Atom  33N    basis set group =>   3
Atom  34H    basis set group =>   4
Atom  35H    basis set group =>   4
Atom  36H    basis set group =>   4
Atom  37C    basis set group =>   2
Atom  38C    basis set group =>   2
Atom  39N    basis set group =>   3
Atom  40H    basis set group =>   4
Atom  41H    basis set group =>   4
Atom  42H    basis set group =>   4
Atom  43C    basis set group =>   2
Atom  44C    basis set group =>   2
Atom  45N    basis set group =>   3
Atom  46H    basis set group =>   4
Atom  47H    basis set group =>   4
Atom  48H    basis set group =>   4
Atom  49C    basis set group =>   2
Atom  50C    basis set group =>   2
Atom  51N    basis set group =>   3
Atom  52H    basis set group =>   4
Atom  53H    basis set group =>   4
Atom  54H    basis set group =>   4
Atom  55C    basis set group =>   2
Atom  56C    basis set group =>   2
Atom  57N    basis set group =>   3
Atom  58H    basis set group =>   4
Atom  59H    basis set group =>   4
Atom  60H    basis set group =>   4
Atom  61C    basis set group =>   2
Atom  62C    basis set group =>   2
Atom  63N    basis set group =>   3
Atom  64H    basis set group =>   4
Atom  65H    basis set group =>   4
Atom  66H    basis set group =>   4
Atom  67C    basis set group =>   2
Atom  68C    basis set group =>   2
Atom  69N    basis set group =>   3
Atom  70H    basis set group =>   4
Atom  71H    basis set group =>   4
Atom  72H    basis set group =>   4
Atom  73C    basis set group =>   2
Atom  74C    basis set group =>   2
Atom  75N    basis set group =>   3
Atom  76H    basis set group =>   4
Atom  77H    basis set group =>   4
Atom  78H    basis set group =>   4
Atom  79C    basis set group =>   2
Atom  80C    basis set group =>   2
Atom  81N    basis set group =>   3
Atom  82H    basis set group =>   4
Atom  83H    basis set group =>   4
Atom  84H    basis set group =>   4
Atom  85C    basis set group =>   2
Atom  86C    basis set group =>   2
Atom  87N    basis set group =>   3
Atom  88H    basis set group =>   4
Atom  89H    basis set group =>   4
Atom  90H    basis set group =>   4
Atom  91C    basis set group =>   2
Atom  92C    basis set group =>   2
Atom  93N    basis set group =>   3
Atom  94H    basis set group =>   4
Atom  95H    basis set group =>   4
Atom  96H    basis set group =>   4
Atom  97C    basis set group =>   2
Atom  98C    basis set group =>   2
Atom  99N    basis set group =>   3
Atom 100H    basis set group =>   4
Atom 101H    basis set group =>   4
Atom 102H    basis set group =>   4
Atom 103C    basis set group =>   2
Atom 104C    basis set group =>   2
Atom 105N    basis set group =>   3
Atom 106H    basis set group =>   4
Atom 107H    basis set group =>   4
Atom 108H    basis set group =>   4
Atom 109C    basis set group =>   2
Atom 110C    basis set group =>   2
Atom 111N    basis set group =>   3
Atom 112H    basis set group =>   4
Atom 113H    basis set group =>   4
Atom 114H    basis set group =>   4
Atom 115C    basis set group =>   2
Atom 116C    basis set group =>   2
Atom 117N    basis set group =>   3
Atom 118H    basis set group =>   4
Atom 119H    basis set group =>   4
Atom 120H    basis set group =>   4
---------------------------------
AUXILIARY/J BASIS SET INFORMATION
---------------------------------
There are 4 groups of distinct atoms

 Group   1 Type K   : 19s5p5d3f1g contracted to 8s4p4d1f1g pattern {121111111/2111/2111/3/1}
 Group   2 Type C   : 12s5p4d2f1g contracted to 6s4p3d1f1g pattern {711111/2111/211/2/1}
 Group   3 Type N   : 12s5p4d2f1g contracted to 6s4p3d1f1g pattern {711111/2111/211/2/1}
 Group   4 Type H   : 5s2p1d contracted to 3s1p1d pattern {311/2/1}

Atom   0K    basis set group =>   1
Atom   1C    basis set group =>   2
Atom   2C    basis set group =>   2
Atom   3N    basis set group =>   3
Atom   4H    basis set group =>   4
Atom   5H    basis set group =>   4
Atom   6H    basis set group =>   4
Atom   7C    basis set group =>   2
Atom   8C    basis set group =>   2
Atom   9N    basis set group =>   3
Atom  10H    basis set group =>   4
Atom  11H    basis set group =>   4
Atom  12H    basis set group =>   4
Atom  13C    basis set group =>   2
Atom  14C    basis set group =>   2
Atom  15N    basis set group =>   3
Atom  16H    basis set group =>   4
Atom  17H    basis set group =>   4
Atom  18H    basis set group =>   4
Atom  19C    basis set group =>   2
Atom  20C    basis set group =>   2
Atom  21N    basis set group =>   3
Atom  22H    basis set group =>   4
Atom  23H    basis set group =>   4
Atom  24H    basis set group =>   4
Atom  25C    basis set group =>   2
Atom  26C    basis set group =>   2
Atom  27N    basis set group =>   3
Atom  28H    basis set group =>   4
Atom  29H    basis set group =>   4
Atom  30H    basis set group =>   4
Atom  31C    basis set group =>   2
Atom  32C    basis set group =>   2
Atom  33N    basis set group =>   3
Atom  34H    basis set group =>   4
Atom  35H    basis set group =>   4
Atom  36H    basis set group =>   4
Atom  37C    basis set group =>   2
Atom  38C    basis set group =>   2
Atom  39N    basis set group =>   3
Atom  40H    basis set group =>   4
Atom  41H    basis set group =>   4
Atom  42H    basis set group =>   4
Atom  43C    basis set group =>   2
Atom  44C    basis set group =>   2
Atom  45N    basis set group =>   3
Atom  46H    basis set group =>   4
Atom  47H    basis set group =>   4
Atom  48H    basis set group =>   4
Atom  49C    basis set group =>   2
Atom  50C    basis set group =>   2
Atom  51N    basis set group =>   3
Atom  52H    basis set group =>   4
Atom  53H    basis set group =>   4
Atom  54H    basis set group =>   4
Atom  55C    basis set group =>   2
Atom  56C    basis set group =>   2
Atom  57N    basis set group =>   3
Atom  58H    basis set group =>   4
Atom  59H    basis set group =>   4
Atom  60H    basis set group =>   4
Atom  61C    basis set group =>   2
Atom  62C    basis set group =>   2
Atom  63N    basis set group =>   3
Atom  64H    basis set group =>   4
Atom  65H    basis set group =>   4
Atom  66H    basis set group =>   4
Atom  67C    basis set group =>   2
Atom  68C    basis set group =>   2
Atom  69N    basis set group =>   3
Atom  70H    basis set group =>   4
Atom  71H    basis set group =>   4
Atom  72H    basis set group =>   4
Atom  73C    basis set group =>   2
Atom  74C    basis set group =>   2
Atom  75N    basis set group =>   3
Atom  76H    basis set group =>   4
Atom  77H    basis set group =>   4
Atom  78H    basis set group =>   4
Atom  79C    basis set group =>   2
Atom  80C    basis set group =>   2
Atom  81N    basis set group =>   3
Atom  82H    basis set group =>   4
Atom  83H    basis set group =>   4
Atom  84H    basis set group =>   4
Atom  85C    basis set group =>   2
Atom  86C    basis set group =>   2
Atom  87N    basis set group =>   3
Atom  88H    basis set group =>   4
Atom  89H    basis set group =>   4
Atom  90H    basis set group =>   4
Atom  91C    basis set group =>   2
Atom  92C    basis set group =>   2
Atom  93N    basis set group =>   3
Atom  94H    basis set group =>   4
Atom  95H    basis set group =>   4
Atom  96H    basis set group =>   4
Atom  97C    basis set group =>   2
Atom  98C    basis set group =>   2
Atom  99N    basis set group =>   3
Atom 100H    basis set group =>   4
Atom 101H    basis set group =>   4
Atom 102H    basis set group =>   4
Atom 103C    basis set group =>   2
Atom 104C    basis set group =>   2
Atom 105N    basis set group =>   3
Atom 106H    basis set group =>   4
Atom 107H    basis set group =>   4
Atom 108H    basis set group =>   4
Atom 109C    basis set group =>   2
Atom 110C    basis set group =>   2
Atom 111N    basis set group =>   3
Atom 112H    basis set group =>   4
Atom 113H    basis set group =>   4
Atom 114H    basis set group =>   4
Atom 115C    basis set group =>   2
Atom 116C    basis set group =>   2
Atom 117N    basis set group =>   3
Atom 118H    basis set group =>   4
Atom 119H    basis set group =>   4
Atom 120H    basis set group =>   4


           ************************************************************
           *        Program running with 8 parallel MPI-processes     *
           *              working on a common directory               *
           ************************************************************
------------------------------------------------------------------------------
                           ORCA GTO INTEGRAL CALCULATION
                           -- RI-GTO INTEGRALS CHOSEN --
------------------------------------------------------------------------------
------------------------------------------------------------------------------
                   ___                                                        
                  /   \      - P O W E R E D   B Y -                         
                 /     \                                                     
                 |  |  |   _    _      __       _____    __    __             
                 |  |  |  | |  | |    /  \     |  _  \  |  |  /  |          
                  \  \/   | |  | |   /    \    | | | |  |  | /  /          
                 / \  \   | |__| |  /  /\  \   | |_| |  |  |/  /          
                |  |  |   |  __  | /  /__\  \  |    /   |      \           
                |  |  |   | |  | | |   __   |  |    \   |  |\   \          
                \     /   | |  | | |  |  |  |  | |\  \  |  | \   \       
                 \___/    |_|  |_| |__|  |__|  |_| \__\ |__|  \__/        
                                                                              
                      - O R C A' S   B I G   F R I E N D -                    
                                      &                                       
                       - I N T E G R A L  F E E D E R -                       
                                                                              
 v1 FN, 2020, v2 2021                                                         
------------------------------------------------------------------------------


Reading SHARK input file ORCA.SHARKINP.tmp ... ok
----------------------
SHARK INTEGRAL PACKAGE
----------------------

Number of atoms                             ...    121
Number of basis functions                   ...   1558
Number of shells                            ...    750
Maximum angular momentum                    ...      2
Integral batch strategy                     ... SHARK/LIBINT Hybrid
RI-J (if used) integral strategy            ... SPLIT-RIJ (Revised 2003 algorithm where possible)
Printlevel                                  ...      1
Contraction scheme used                     ... SEGMENTED contraction
Coulomb Range Separation                    ... NOT USED
Exchange Range Separation                   ... NOT USED
Finite Nucleus Model                        ... NOT USED
Auxiliary Coulomb fitting basis             ... AVAILABLE
   # of basis functions in Aux-J            ...   3656
   # of shells in Aux-J                     ...   1218
   Maximum angular momentum in Aux-J        ...      4
Auxiliary J/K fitting basis                 ... NOT available
Auxiliary Correlation fitting basis         ... NOT available
Auxiliary 'external' fitting basis          ... NOT available
Integral threshold                          ...     2.500000e-11
Primitive cut-off                           ...     2.500000e-12
Primitive pair pre-selection threshold      ...     2.500000e-12

Calculating pre-screening integrals         ... done (  0.2 sec) Dimension = 750
Organizing shell pair data                  ... done (  0.6 sec)
Shell pair information
Total number of shell pairs                 ...    281625
Shell pairs after pre-screening             ...     97037
Total number of primitive shell pairs       ...   1021859
Primitive shell pairs kept                  ...    189930
          la=0 lb=0:  29285 shell pairs
          la=1 lb=0:  37272 shell pairs
          la=1 lb=1:  12018 shell pairs
          la=2 lb=0:  10526 shell pairs
          la=2 lb=1:   6957 shell pairs
          la=2 lb=2:    979 shell pairs

Calculating one electron integrals          ... done (  0.2 sec)
Calculating RI/J V-Matrix + Cholesky decomp.... done (  0.7 sec)
Calculating Nuclear repulsion               ... done (  0.0 sec) ENN=   8467.842426712143 Eh

SHARK setup successfully completed in   2.4 seconds

Maximum memory used throughout the entire GTOINT-calculation: 163.5 MB


           ************************************************************
           *        Program running with 8 parallel MPI-processes     *
           *              working on a common directory               *
           ************************************************************
-------------------------------------------------------------------------------
                                 ORCA SCF
-------------------------------------------------------------------------------

------------
SCF SETTINGS
------------
Hamiltonian:
 Density Functional     Method          .... DFT(GTOs)
  Functional kind                       .... Exchange
  Functional name                       .... Re-regularized SCAN exchange by Furness et al
  Functional family                     .... MGGA
  Functional refs                              
    [ 0] J. W. Furness, A. D. Kaplan, J. Ning, J. P. Perdew, and J. Sun, J. Phys. Chem. Lett. 11, 8208 (2020)
    [ 1] J. W. Furness, A. D. Kaplan, J. Ning, J. P. Perdew, and J. Sun, J. Phys. Chem. Lett. 11, 9248 (2020)
  Functional external parameters         .... 8
 Parameter  0 :         c1 parameter
 Parameter  1 :         c2 parameter
 Parameter  2 :          d parameter
 Parameter  3 :         k1 parameter
 Parameter  4 :       taur parameter
 Parameter  5 :     alphar parameter
 Parameter  6 :        eta parameter
 Parameter  7 :        dp2 parameter
  Functional kind                       .... Correlation
  Functional name                       .... Re-regularized SCAN correlation by Furness et al
  Functional family                     .... MGGA
  Functional refs                              
    [ 0] J. W. Furness, A. D. Kaplan, J. Ning, J. P. Perdew, and J. Sun, J. Phys. Chem. Lett. 11, 8208 (2020)
    [ 1] J. W. Furness, A. D. Kaplan, J. Ning, J. P. Perdew, and J. Sun, J. Phys. Chem. Lett. 11, 9248 (2020)
  Functional external parameters         .... 0
 Gradients option       PostSCFGGA      .... off
   Density functional embedding theory  .... OFF
 RI-approximation to the Coulomb term is turned on
   Number of AuxJ basis functions       .... 3656


General Settings:
 Integral files         IntName         .... ORCA
 Hartree-Fock type      HFTyp           .... RHF
 Total Charge           Charge          ....    1
 Multiplicity           Mult            ....    1
 Number of Electrons    NEL             ....  458
 Basis Dimension        Dim             .... 1558
 Nuclear Repulsion      ENuc            ....   8467.8424267121 Eh

Convergence Acceleration:
 DIIS                   CNVDIIS         .... on
   Start iteration      DIISMaxIt       ....    12
   Startup error        DIISStart       ....  0.200000
   # of expansion vecs  DIISMaxEq       ....     5
   Bias factor          DIISBfac        ....   1.050
   Max. coefficient     DIISMaxC        ....  10.000
 Trust-Rad. Augm. Hess. CNVTRAH         .... auto
   Auto Start mean grad. ratio tolernc. ....  1.125000
   Auto Start start iteration           ....    20
   Auto Start num. interpolation iter.  ....    10
   Max. Number of Micro iterations      ....    16
   Max. Number of Macro iterations      .... Maxiter - #DIIS iter
   Number of Davidson start vectors     ....     2
   Converg. threshold I  (grad. norm)   ....   1.000e-05
   Converg. threshold II (energy diff.) ....   1.000e-08
   Grad. Scal. Fac. for Micro threshold ....   0.100
   Minimum threshold for Micro iter.    ....   0.010
   NR start threshold (gradient norm)   ....   0.001
   Initial trust radius                 ....   0.400
   Minimum AH scaling param. (alpha)    ....   1.000
   Maximum AH scaling param. (alpha)    .... 1000.000
   Orbital update algorithm             .... Taylor
   White noise on init. David. guess    .... on
   Maximum white noise                  ....   0.010
   Quad. conv. algorithm                .... NR
   COSX micro iterations for RIJONX calc.... off
 SOSCF                  CNVSOSCF        .... on
   Start iteration      SOSCFMaxIt      ....   150
   Startup grad/error   SOSCFStart      ....  0.003300
 Level Shifting         CNVShift        .... on
   Level shift para.    LevelShift      ....    0.2500
   Turn off err/grad.   ShiftErr        ....    0.0010
 Zerner damping         CNVZerner       .... off
 Static damping         CNVDamp         .... on
   Fraction old density DampFac         ....    0.7000
   Max. Damping (<1)    DampMax         ....    0.9800
   Min. Damping (>=0)   DampMin         ....    0.0000
   Turn off err/grad.   DampErr         ....    0.1000
 Fernandez-Rico         CNVRico         .... off

SCF Procedure:
 Maximum # iterations   MaxIter         ....   125
 SCF integral mode      SCFMode         .... Direct
   Integral package                     .... SHARK and LIBINT hybrid scheme
 Reset frequency        DirectResetFreq ....    20
 Integral Threshold     Thresh          ....  2.500e-11 Eh
 Primitive CutOff       TCut            ....  2.500e-12 Eh

Convergence Tolerance:
 Convergence Check Mode ConvCheckMode   .... Total+1el-Energy
 Convergence forced     ConvForced      .... 0
 Energy Change          TolE            ....  1.000e-08 Eh
 1-El. energy change                    ....  1.000e-05 Eh
 Orbital Gradient       TolG            ....  1.000e-05
 Orbital Rotation angle TolX            ....  1.000e-05
 DIIS Error             TolErr          ....  5.000e-07


Diagonalization of the overlap matrix:
Smallest eigenvalue                        ... 9.042e-05
Time for diagonalization                   ...    0.304 sec
Threshold for overlap eigenvalues          ... 1.000e-08
Number of eigenvalues below threshold      ... 0
Time for construction of square roots      ...    0.242 sec
Total time needed                          ...    0.557 sec

Time for model grid setup =    1.913 sec

------------------------------
INITIAL GUESS: MODEL POTENTIAL
------------------------------
Loading Hartree-Fock densities                     ... done
Calculating cut-offs                               ... done
Initializing the effective Hamiltonian             ... done
Setting up the integral package (SHARK)            ... done
Starting the Coulomb interaction                   ... done (   2.7 sec)
Reading the grid                                   ... done
Mapping shells                                     ... done
Starting the XC term evaluation                    ... done (   0.6 sec)
  promolecular density results
     # of electrons  =    458.963503541
     EX              =   -384.272068463
     EC              =    -14.782371501
     EX+EC           =   -399.054439964
Transforming the Hamiltonian                       ... done (   0.2 sec)
Diagonalizing the Hamiltonian                      ... done (   0.3 sec)
Back transforming the eigenvectors                 ... done (   0.1 sec)
Now organizing SCF variables                       ... done
                      ------------------
                      INITIAL GUESS DONE (   5.8 sec)
                      ------------------
-------------------
DFT GRID GENERATION
-------------------

General Integration Accuracy     IntAcc      ... 4.959
Radial Grid Type                 RadialGrid  ... OptM3 with GC (2021)
Angular Grid (max. ang.)         AngularGrid ... 6 (Lebedev-590)
Angular grid pruning method      GridPruning ... 4 (adaptive)
Weight generation scheme         WeightScheme... Becke
Basis function cutoff            BFCut       ... 1.0000e-11
Integration weight cutoff        WCut        ... 1.0000e-14
Angular grids for H and He will be reduced by one unit
Partially contracted basis set               ... off
Rotationally invariant grid construction     ... off

Total number of grid points                  ...  1394579
Total number of batches                      ...    21849
Average number of points per batch           ...       63
Average number of grid points per atom       ...    11525
Time for grid setup =   23.019 sec


--------------------
CPCM SOLVATION MODEL
--------------------
CPCM parameters:
  Epsilon                                         ...      35.6880
  Refrac                                          ...       1.3442
  Rsolv                                           ...       1.3000
  Surface type                                    ... GAUSSIAN VDW
  Epsilon function type                           ...         CPCM
Solvent:                                     ... MECN
SMD-CDS solvent descriptors:
  Soln                                       ...    1.3442
  Soln25                                     ...    1.3416
  Sola                                       ...    0.0700
  Solb                                       ...    0.3200
  Solg                                       ...   41.2500
  Solc                                       ...    0.0000
  Solh                                       ...    0.0000
Radii:
 Radius for K  used is    5.1967 Bohr (=   2.7500 Ang.)
 Radius for C  used is    3.4960 Bohr (=   1.8500 Ang.)
 Radius for N  used is    3.5716 Bohr (=   1.8900 Ang.)
 Radius for H  used is    2.2677 Bohr (=   1.2000 Ang.)
Calculating surface                               ...        done! (  0.0s)
GEPOL surface points                              ...         8011
GEPOL Volume                                      ...    7641.7012
GEPOL Surface-area                                ...    4591.4963
Calculating surface distance matrix               ...        done! (  0.7s)
Performing Cholesky decomposition & store         ...        done! (  3.8s)
Overall time for CPCM initialization              ...                 4.5s
--------------
SCF ITERATIONS
--------------
ITER       Energy         Delta-E        Max-DP      RMS-DP      [F,P]     Damp
               ***  Starting incremental Fock matrix formation  ***
  0  -3252.2970685968   0.000000000000 0.05105414  0.00052089  0.2794853 0.7000
  1  -3253.3418293531  -1.044760756327 0.03126992  0.00035944  0.1037618 0.7000
                               ***Turning on DIIS***
  2  -3253.6872881040  -0.345458750876 0.05147069  0.00058703  0.0399887 0.0000
  3  -3254.2958928825  -0.608604778454 0.02607114  0.00030061  0.0464450 0.0000
  4  -3254.4051600700  -0.109267187541 0.01090191  0.00011302  0.0335493 0.0000
  5  -3254.4272815862  -0.022121516218 0.00347307  0.00003454  0.0060463 0.0000
                      *** Initiating the SOSCF procedure ***
                           *** Shutting down DIIS ***
                      *** Re-Reading the Fockian *** 
                      *** Removing any level shift *** 
ITER      Energy       Delta-E        Grad      Rot      Max-DP    RMS-DP
  6  -3254.42819864  -0.0009170537  0.000368  0.000368  0.001071  0.000010
               *** Restarting incremental Fock matrix formation ***
  7  -3254.42825959  -0.0000609459  0.000258  0.000813  0.001280  0.000008
  8  -3254.42820833   0.0000512599  0.000822  0.000707  0.000969  0.000005
  9  -3254.42827028  -0.0000619562  0.000036  0.000069  0.000139  0.000001
 10  -3254.42826974   0.0000005466  0.000037  0.000043  0.000091  0.000001
 11  -3254.42827083  -0.0000010981  0.000017  0.000043  0.000070  0.000001
 12  -3254.42827050   0.0000003354  0.000033  0.000028  0.000044  0.000000
                  ***Gradient check signals convergence***
              ***Rediagonalizing the Fockian in SOSCF/NRSCF***

               *****************************************************
               *                     SUCCESS                       *
               *           SCF CONVERGED AFTER  13 CYCLES          *
               *****************************************************


SMD CDS free energy correction energy :                11.88027     Kcal/mol
Total Energy after SMD CDS correction =             -3254.409338423 Eh

----------------
TOTAL SCF ENERGY
----------------

Total Energy       :        -3254.40933842 Eh          -88556.98025 eV

Components:
Nuclear Repulsion  :         8467.84242671 Eh          230421.70684 eV
Electronic Energy  :       -11722.25176514 Eh         -318978.68709 eV
One Electron Energy:       -21273.47495517 Eh         -578880.68326 eV
Two Electron Energy:         9551.22319004 Eh          259901.99616 eV
CPCM Dielectric    :           -0.16595280 Eh              -4.51581 eV
SMD CDS (Gcds)     :            0.01893241 Eh               0.51518 eV

Virial components:
Potential Energy   :        -6498.01378931 Eh         -176819.94456 eV
Kinetic Energy     :         3243.60445089 Eh           88262.96431 eV
Virial Ratio       :            2.00333114


DFT components:
N(Alpha)           :      228.999971979917 electrons
N(Beta)            :      228.999971979917 electrons
N(Total)           :      457.999943959834 electrons
E(X)               :     -394.153738540985 Eh       
E(C)               :      -14.549309528159 Eh       
E(XC)              :     -408.703048069143 Eh       
DFET-embed. en.    :        0.000000000000 Eh       
CPCM Solvation Model Properties:
Surface-charge          :           -1.07146274
Charge-correction       :            0.00354941 Eh               0.09658 eV
Free-energy (cav+disp)  :            0.01893241 Eh               0.51518 eV

---------------
SCF CONVERGENCE
---------------

  Last Energy change         ...   -3.3345e-07  Tolerance :   1.0000e-08
  Last MAX-Density change    ...    1.5530e-05  Tolerance :   1.0000e-07
  Last RMS-Density change    ...    1.0765e-07  Tolerance :   5.0000e-09
  Last Orbital Gradient      ...    7.8155e-07  Tolerance :   1.0000e-05
  Last Orbital Rotation      ...    1.1722e-06  Tolerance :   1.0000e-05

             **** THE GBW FILE WAS UPDATED (ORCA.gbw) ****
             **** DENSITY ORCA.scfp WAS UPDATED ****
             **** ENERGY FILE WAS UPDATED (ORCA.en.tmp) ****
             **** THE GBW FILE WAS UPDATED (ORCA.gbw) ****
             **** DENSITY ORCA.scfp WAS UPDATED ****
----------------
ORBITAL ENERGIES
----------------

  NO   OCC          E(Eh)            E(eV) 
   0   2.0000    -129.358997     -3520.0373 
   1   2.0000     -14.162626      -385.3846 
   2   2.0000     -14.161899      -385.3649 
   3   2.0000     -14.160510      -385.3271 
   4   2.0000     -14.160304      -385.3215 
   5   2.0000     -14.160185      -385.3182 
   6   2.0000     -14.159056      -385.2875 
   7   2.0000     -14.158951      -385.2847 
   8   2.0000     -14.158877      -385.2826 
   9   2.0000     -14.158829      -385.2813 
  10   2.0000     -14.158471      -385.2716 
  11   2.0000     -14.158246      -385.2655 
  12   2.0000     -14.158228      -385.2650 
  13   2.0000     -14.157895      -385.2559 
  14   2.0000     -14.157858      -385.2549 
  15   2.0000     -14.157370      -385.2416 
  16   2.0000     -14.155762      -385.1979 
  17   2.0000     -14.155651      -385.1949 
  18   2.0000     -14.155003      -385.1772 
  19   2.0000     -14.154913      -385.1748 
  20   2.0000     -14.154208      -385.1556 
  21   2.0000     -13.029969      -354.5635 
  22   2.0000     -10.355425      -281.7855 
  23   2.0000     -10.355151      -281.7780 
  24   2.0000     -10.354997      -281.7738 
  25   2.0000     -10.088285      -274.5162 
  26   2.0000     -10.088060      -274.5101 
  27   2.0000     -10.086658      -274.4719 
  28   2.0000     -10.084747      -274.4199 
  29   2.0000     -10.084710      -274.4189 
  30   2.0000     -10.084493      -274.4130 
  31   2.0000     -10.083348      -274.3818 
  32   2.0000     -10.083109      -274.3753 
  33   2.0000     -10.083069      -274.3743 
  34   2.0000     -10.082980      -274.3718 
  35   2.0000     -10.082963      -274.3714 
  36   2.0000     -10.082917      -274.3701 
  37   2.0000     -10.082442      -274.3572 
  38   2.0000     -10.082371      -274.3553 
  39   2.0000     -10.082337      -274.3543 
  40   2.0000     -10.082263      -274.3523 
  41   2.0000     -10.082252      -274.3520 
  42   2.0000     -10.078917      -274.2613 
  43   2.0000     -10.078032      -274.2372 
  44   2.0000     -10.077589      -274.2251 
  45   2.0000     -10.062564      -273.8163 
  46   2.0000     -10.062391      -273.8116 
  47   2.0000     -10.062341      -273.8102 
  48   2.0000     -10.062207      -273.8066 
  49   2.0000     -10.062094      -273.8035 
  50   2.0000     -10.061885      -273.7978 
  51   2.0000     -10.061783      -273.7950 
  52   2.0000     -10.057549      -273.6798 
  53   2.0000     -10.056067      -273.6395 
  54   2.0000     -10.055881      -273.6344 
  55   2.0000     -10.054958      -273.6093 
  56   2.0000     -10.054543      -273.5980 
  57   2.0000     -10.053958      -273.5821 
  58   2.0000     -10.053717      -273.5756 
  59   2.0000     -10.053463      -273.5686 
  60   2.0000     -10.052890      -273.5530 
  61   2.0000     -10.051673      -273.5199 
  62   2.0000     -10.051569      -273.5171 
  63   2.0000     -10.049856      -273.4705 
  64   2.0000     -10.049210      -273.4529 
  65   2.0000      -1.269878       -34.5551 
  66   2.0000      -0.894033       -24.3279 
  67   2.0000      -0.893239       -24.3063 
  68   2.0000      -0.889424       -24.2025 
  69   2.0000      -0.889233       -24.1973 
  70   2.0000      -0.887900       -24.1610 
  71   2.0000      -0.887716       -24.1560 
  72   2.0000      -0.887329       -24.1454 
  73   2.0000      -0.886662       -24.1273 
  74   2.0000      -0.886336       -24.1184 
  75   2.0000      -0.886310       -24.1177 
  76   2.0000      -0.886211       -24.1150 
  77   2.0000      -0.886139       -24.1131 
  78   2.0000      -0.885565       -24.0974 
  79   2.0000      -0.885435       -24.0939 
  80   2.0000      -0.885154       -24.0863 
  81   2.0000      -0.884864       -24.0784 
  82   2.0000      -0.883996       -24.0547 
  83   2.0000      -0.881934       -23.9986 
  84   2.0000      -0.881236       -23.9797 
  85   2.0000      -0.880690       -23.9648 
  86   2.0000      -0.737960       -20.0809 
  87   2.0000      -0.737864       -20.0783 
  88   2.0000      -0.737641       -20.0722 
  89   2.0000      -0.737012       -20.0551 
  90   2.0000      -0.736701       -20.0467 
  91   2.0000      -0.736602       -20.0440 
  92   2.0000      -0.736342       -20.0369 
  93   2.0000      -0.736007       -20.0278 
  94   2.0000      -0.735870       -20.0240 
  95   2.0000      -0.735705       -20.0195 
  96   2.0000      -0.735562       -20.0157 
  97   2.0000      -0.735125       -20.0038 
  98   2.0000      -0.734238       -19.9796 
  99   2.0000      -0.733303       -19.9542 
 100   2.0000      -0.732843       -19.9417 
 101   2.0000      -0.732723       -19.9384 
 102   2.0000      -0.732440       -19.9307 
 103   2.0000      -0.731672       -19.9098 
 104   2.0000      -0.730827       -19.8868 
 105   2.0000      -0.729083       -19.8393 
 106   2.0000      -0.651401       -17.7255 
 107   2.0000      -0.650183       -17.6924 
 108   2.0000      -0.648918       -17.6580 
 109   2.0000      -0.481672       -13.1069 
 110   2.0000      -0.477333       -12.9889 
 111   2.0000      -0.476524       -12.9669 
 112   2.0000      -0.476276       -12.9601 
 113   2.0000      -0.475864       -12.9489 
 114   2.0000      -0.475172       -12.9301 
 115   2.0000      -0.474928       -12.9235 
 116   2.0000      -0.474026       -12.8989 
 117   2.0000      -0.473604       -12.8874 
 118   2.0000      -0.472927       -12.8690 
 119   2.0000      -0.472745       -12.8640 
 120   2.0000      -0.472252       -12.8506 
 121   2.0000      -0.470984       -12.8161 
 122   2.0000      -0.470678       -12.8078 
 123   2.0000      -0.469408       -12.7732 
 124   2.0000      -0.468990       -12.7619 
 125   2.0000      -0.468134       -12.7386 
 126   2.0000      -0.467291       -12.7156 
 127   2.0000      -0.466361       -12.6903 
 128   2.0000      -0.464949       -12.6519 
 129   2.0000      -0.431933       -11.7535 
 130   2.0000      -0.428624       -11.6634 
 131   2.0000      -0.427659       -11.6372 
 132   2.0000      -0.427558       -11.6345 
 133   2.0000      -0.427003       -11.6193 
 134   2.0000      -0.426250       -11.5989 
 135   2.0000      -0.424782       -11.5589 
 136   2.0000      -0.424332       -11.5467 
 137   2.0000      -0.424013       -11.5380 
 138   2.0000      -0.423286       -11.5182 
 139   2.0000      -0.422727       -11.5030 
 140   2.0000      -0.422468       -11.4959 
 141   2.0000      -0.422016       -11.4836 
 142   2.0000      -0.421748       -11.4763 
 143   2.0000      -0.421395       -11.4667 
 144   2.0000      -0.421371       -11.4661 
 145   2.0000      -0.421097       -11.4586 
 146   2.0000      -0.420761       -11.4495 
 147   2.0000      -0.420706       -11.4480 
 148   2.0000      -0.420598       -11.4451 
 149   2.0000      -0.420587       -11.4448 
 150   2.0000      -0.420560       -11.4440 
 151   2.0000      -0.420547       -11.4437 
 152   2.0000      -0.420321       -11.4375 
 153   2.0000      -0.420217       -11.4347 
 154   2.0000      -0.420069       -11.4307 
 155   2.0000      -0.419902       -11.4261 
 156   2.0000      -0.419568       -11.4170 
 157   2.0000      -0.419462       -11.4141 
 158   2.0000      -0.418968       -11.4007 
 159   2.0000      -0.417944       -11.3728 
 160   2.0000      -0.416879       -11.3438 
 161   2.0000      -0.416053       -11.3214 
 162   2.0000      -0.415330       -11.3017 
 163   2.0000      -0.414643       -11.2830 
 164   2.0000      -0.413994       -11.2654 
 165   2.0000      -0.412080       -11.2133 
 166   2.0000      -0.411301       -11.1921 
 167   2.0000      -0.410366       -11.1666 
 168   2.0000      -0.409512       -11.1434 
 169   2.0000      -0.361538        -9.8380 
 170   2.0000      -0.355266        -9.6673 
 171   2.0000      -0.352536        -9.5930 
 172   2.0000      -0.351812        -9.5733 
 173   2.0000      -0.350898        -9.5484 
 174   2.0000      -0.349806        -9.5187 
 175   2.0000      -0.348817        -9.4918 
 176   2.0000      -0.348531        -9.4840 
 177   2.0000      -0.348014        -9.4699 
 178   2.0000      -0.347138        -9.4461 
 179   2.0000      -0.346645        -9.4327 
 180   2.0000      -0.346223        -9.4212 
 181   2.0000      -0.345775        -9.4090 
 182   2.0000      -0.345077        -9.3900 
 183   2.0000      -0.344644        -9.3782 
 184   2.0000      -0.344254        -9.3676 
 185   2.0000      -0.342907        -9.3310 
 186   2.0000      -0.342133        -9.3099 
 187   2.0000      -0.341141        -9.2829 
 188   2.0000      -0.340087        -9.2542 
 189   2.0000      -0.321552        -8.7499 
 190   2.0000      -0.318980        -8.6799 
 191   2.0000      -0.318018        -8.6537 
 192   2.0000      -0.317241        -8.6326 
 193   2.0000      -0.316990        -8.6257 
 194   2.0000      -0.316498        -8.6123 
 195   2.0000      -0.315988        -8.5985 
 196   2.0000      -0.315132        -8.5752 
 197   2.0000      -0.315064        -8.5733 
 198   2.0000      -0.314054        -8.5458 
 199   2.0000      -0.313574        -8.5328 
 200   2.0000      -0.313340        -8.5264 
 201   2.0000      -0.313005        -8.5173 
 202   2.0000      -0.312266        -8.4972 
 203   2.0000      -0.312184        -8.4950 
 204   2.0000      -0.312161        -8.4943 
 205   2.0000      -0.312121        -8.4932 
 206   2.0000      -0.312098        -8.4926 
 207   2.0000      -0.311765        -8.4836 
 208   2.0000      -0.311548        -8.4776 
 209   2.0000      -0.311503        -8.4764 
 210   2.0000      -0.311173        -8.4675 
 211   2.0000      -0.310650        -8.4532 
 212   2.0000      -0.309736        -8.4284 
 213   2.0000      -0.309364        -8.4182 
 214   2.0000      -0.308903        -8.4057 
 215   2.0000      -0.307998        -8.3811 
 216   2.0000      -0.306345        -8.3361 
 217   2.0000      -0.306048        -8.3280 
 218   2.0000      -0.305723        -8.3192 
 219   2.0000      -0.304531        -8.2867 
 220   2.0000      -0.304348        -8.2817 
 221   2.0000      -0.302864        -8.2413 
 222   2.0000      -0.302323        -8.2266 
 223   2.0000      -0.301939        -8.2162 
 224   2.0000      -0.300694        -8.1823 
 225   2.0000      -0.299272        -8.1436 
[...]
      dxz     :     0.007774
      dyz     :     0.057054
      dx2y2   :     0.061387
      dxy     :     0.047759
106 H s       :     0.753207  s :     0.753207
      pz      :     0.021810  p :     0.044855
      px      :     0.010635
      py      :     0.012410
107 H s       :     0.753156  s :     0.753156
      pz      :     0.019300  p :     0.044824
      px      :     0.018965
      py      :     0.006560
108 H s       :     0.753080  s :     0.753080
      pz      :     0.010618  p :     0.044856
      px      :     0.022644
      py      :     0.011594
109 C s       :     2.947028  s :     2.947028
      pz      :     1.109354  p :     3.340834
      px      :     1.069695
      py      :     1.161785
      dz2     :     0.009149  d :     0.062759
      dxz     :     0.020199
      dyz     :     0.009898
      dx2y2   :     0.015166
      dxy     :     0.008347
110 C s       :     2.876532  s :     2.876532
      pz      :     0.958965  p :     2.849587
      px      :     1.056751
      py      :     0.833872
      dz2     :     0.023893  d :     0.106220
      dxz     :     0.028469
      dyz     :     0.012517
      dx2y2   :     0.019576
      dxy     :     0.021765
111 N s       :     3.413568  s :     3.413568
      pz      :     1.278848  p :     3.810019
      px      :     1.378004
      py      :     1.153168
      dz2     :     0.044529  d :     0.197562
      dxz     :     0.064361
      dyz     :     0.016377
      dx2y2   :     0.037038
      dxy     :     0.035258
112 H s       :     0.753388  s :     0.753388
      pz      :     0.012012  p :     0.044838
      px      :     0.020847
      py      :     0.011980
113 H s       :     0.753362  s :     0.753362
      pz      :     0.023589  p :     0.044832
      px      :     0.007764
      py      :     0.013479
114 H s       :     0.753527  s :     0.753527
      pz      :     0.008395  p :     0.044813
      px      :     0.007993
      py      :     0.028425
115 C s       :     2.946742  s :     2.946742
      pz      :     1.022298  p :     3.362036
      px      :     1.172010
      py      :     1.167729
      dz2     :     0.024210  d :     0.062021
      dxz     :     0.008106
      dyz     :     0.011536
      dx2y2   :     0.008163
      dxy     :     0.010007
116 C s       :     2.880301  s :     2.880301
      pz      :     1.184077  p :     2.863801
      px      :     0.836478
      py      :     0.843246
      dz2     :     0.037066  d :     0.107516
      dxz     :     0.034363
      dyz     :     0.034850
      dx2y2   :     0.000455
      dxy     :     0.000782
117 N s       :     3.416879  s :     3.416879
      pz      :     1.507780  p :     3.821490
      px      :     1.154132
      py      :     1.159578
      dz2     :     0.083894  d :     0.175519
      dxz     :     0.042982
      dyz     :     0.045069
      dx2y2   :     0.001281
      dxy     :     0.002293
118 H s       :     0.735972  s :     0.735972
      pz      :     0.008556  p :     0.050386
      px      :     0.022463
      py      :     0.019366
119 H s       :     0.742523  s :     0.742523
      pz      :     0.008652  p :     0.047979
      px      :     0.027844
      py      :     0.011482
120 H s       :     0.744502  s :     0.744502
      pz      :     0.011504  p :     0.047457
      px      :     0.008870
      py      :     0.027083


                      *****************************
                      * MAYER POPULATION ANALYSIS *
                      *****************************

  NA   - Mulliken gross atomic population
  ZA   - Total nuclear charge
  QA   - Mulliken gross atomic charge
  VA   - Mayer's total valence
  BVA  - Mayer's bonded valence
  FA   - Mayer's free valence

  ATOM       NA         ZA         QA         VA         BVA        FA
  0 K     18.1503    19.0000     0.8497     0.2892     0.2892    -0.0000
  1 C      6.6472     6.0000    -0.6472     3.7365     3.7365    -0.0000
  2 C      5.6122     6.0000     0.3878     3.4529     3.4529     0.0000
  3 N      7.4135     7.0000    -0.4135     2.6572     2.6572    -0.0000
  4 H      0.7574     1.0000     0.2426     0.9325     0.9325    -0.0000
  5 H      0.7891     1.0000     0.2109     0.9417     0.9417     0.0000
  6 H      0.7804     1.0000     0.2196     0.9397     0.9397    -0.0000
  7 C      6.5891     6.0000    -0.5891     3.7603     3.7603    -0.0000
  8 C      5.6255     6.0000     0.3745     3.5764     3.5764     0.0000
  9 N      7.4234     7.0000    -0.4234     2.7689     2.7689    -0.0000
 10 H      0.7842     1.0000     0.2158     0.9404     0.9404    -0.0000
 11 H      0.7807     1.0000     0.2193     0.9418     0.9418    -0.0000
 12 H      0.7606     1.0000     0.2394     0.9321     0.9321    -0.0000
 13 C      6.6257     6.0000    -0.6257     3.7983     3.7983    -0.0000
 14 C      5.6129     6.0000     0.3871     3.5527     3.5527    -0.0000
 15 N      7.4168     7.0000    -0.4168     2.7814     2.7814    -0.0000
 16 H      0.7875     1.0000     0.2125     0.9407     0.9407     0.0000
 17 H      0.7678     1.0000     0.2322     0.9375     0.9375     0.0000
 18 H      0.7740     1.0000     0.2260     0.9388     0.9388    -0.0000
 19 C      6.6087     6.0000    -0.6087     3.7703     3.7703    -0.0000
 20 C      5.5777     6.0000     0.4223     3.5996     3.5996    -0.0000
 21 N      7.4588     7.0000    -0.4588     2.8051     2.8051     0.0000
 22 H      0.7732     1.0000     0.2268     0.9376     0.9376     0.0000
 23 H      0.7867     1.0000     0.2133     0.9409     0.9409     0.0000
 24 H      0.7732     1.0000     0.2268     0.9411     0.9411     0.0000
 25 C      6.6504     6.0000    -0.6504     3.7483     3.7483    -0.0000
 26 C      5.5981     6.0000     0.4019     3.4723     3.4723    -0.0000
 27 N      7.4272     7.0000    -0.4272     2.6653     2.6653    -0.0000
 28 H      0.7795     1.0000     0.2205     0.9416     0.9416    -0.0000
 29 H      0.7803     1.0000     0.2197     0.9381     0.9381    -0.0000
 30 H      0.7702     1.0000     0.2298     0.9389     0.9389    -0.0000
 31 C      6.5604     6.0000    -0.5604     3.8630     3.8630    -0.0000
 32 C      5.6469     6.0000     0.3531     3.6686     3.6686     0.0000
 33 N      7.4644     7.0000    -0.4644     2.8315     2.8315     0.0000
 34 H      0.7708     1.0000     0.2292     0.9396     0.9396     0.0000
 35 H      0.7747     1.0000     0.2253     0.9400     0.9400    -0.0000
 36 H      0.7797     1.0000     0.2203     0.9364     0.9364    -0.0000
 37 C      6.6517     6.0000    -0.6517     3.7715     3.7715     0.0000
 38 C      5.6094     6.0000     0.3906     3.6201     3.6201     0.0000
 39 N      7.4204     7.0000    -0.4204     2.8223     2.8223    -0.0000
 40 H      0.7654     1.0000     0.2346     0.9339     0.9339     0.0000
 41 H      0.7869     1.0000     0.2131     0.9415     0.9415     0.0000
 42 H      0.7696     1.0000     0.2304     0.9374     0.9374    -0.0000
 43 C      6.6200     6.0000    -0.6200     3.7729     3.7729     0.0000
 44 C      5.6526     6.0000     0.3474     3.7321     3.7321    -0.0000
 45 N      7.3814     7.0000    -0.3814     2.9383     2.9383    -0.0000
 46 H      0.7873     1.0000     0.2127     0.9400     0.9400    -0.0000
 47 H      0.7812     1.0000     0.2188     0.9428     0.9428     0.0000
 48 H      0.7784     1.0000     0.2216     0.9411     0.9411     0.0000
 49 C      6.5949     6.0000    -0.5949     3.7854     3.7854     0.0000
 50 C      5.6694     6.0000     0.3306     3.6892     3.6892    -0.0000
 51 N      7.3850     7.0000    -0.3850     2.8639     2.8639    -0.0000
 52 H      0.7892     1.0000     0.2108     0.9416     0.9416    -0.0000
 53 H      0.7674     1.0000     0.2326     0.9348     0.9348     0.0000
 54 H      0.7893     1.0000     0.2107     0.9417     0.9417     0.0000
 55 C      6.5715     6.0000    -0.5715     3.7880     3.7880    -0.0000
 56 C      5.6837     6.0000     0.3163     3.7036     3.7036    -0.0000
 57 N      7.3695     7.0000    -0.3695     2.8725     2.8725    -0.0000
 58 H      0.7869     1.0000     0.2131     0.9404     0.9404    -0.0000
 59 H      0.7869     1.0000     0.2131     0.9404     0.9404    -0.0000
 60 H      0.7876     1.0000     0.2124     0.9406     0.9406     0.0000
 61 C      6.5812     6.0000    -0.5812     3.7871     3.7871     0.0000
 62 C      5.6581     6.0000     0.3419     3.6754     3.6754    -0.0000
 63 N      7.3838     7.0000    -0.3838     2.8583     2.8583    -0.0000
 64 H      0.7863     1.0000     0.2137     0.9400     0.9400     0.0000
 65 H      0.7867     1.0000     0.2133     0.9403     0.9403    -0.0000
 66 H      0.7862     1.0000     0.2138     0.9400     0.9400     0.0000
 67 C      6.6243     6.0000    -0.6243     3.7820     3.7820    -0.0000
 68 C      5.6486     6.0000     0.3514     3.6576     3.6576    -0.0000
 69 N      7.3891     7.0000    -0.3891     2.8725     2.8725    -0.0000
 70 H      0.7817     1.0000     0.2183     0.9388     0.9388    -0.0000
 71 H      0.7629     1.0000     0.2371     0.9331     0.9331    -0.0000
 72 H      0.7895     1.0000     0.2105     0.9415     0.9415    -0.0000
 73 C      6.5595     6.0000    -0.5595     3.8581     3.8581    -0.0000
 74 C      5.7380     6.0000     0.2620     3.8574     3.8574    -0.0000
 75 N      7.3701     7.0000    -0.3701     2.9425     2.9425     0.0000
 76 H      0.7870     1.0000     0.2130     0.9398     0.9398     0.0000
 77 H      0.7789     1.0000     0.2211     0.9411     0.9411    -0.0000
 78 H      0.7816     1.0000     0.2184     0.9418     0.9418    -0.0000
 79 C      6.5846     6.0000    -0.5846     3.7690     3.7690     0.0000
 80 C      5.6913     6.0000     0.3087     3.7021     3.7021    -0.0000
 81 N      7.3702     7.0000    -0.3702     2.8907     2.8907    -0.0000
 82 H      0.7851     1.0000     0.2149     0.9398     0.9398    -0.0000
 83 H      0.7758     1.0000     0.2242     0.9432     0.9432    -0.0000
 84 H      0.7887     1.0000     0.2113     0.9412     0.9412     0.0000
 85 C      6.5680     6.0000    -0.5680     3.7887     3.7887    -0.0000
 86 C      5.6890     6.0000     0.3110     3.7145     3.7145    -0.0000
 87 N      7.3669     7.0000    -0.3669     2.8800     2.8800    -0.0000
 88 H      0.7875     1.0000     0.2125     0.9406     0.9406     0.0000
 89 H      0.7875     1.0000     0.2125     0.9407     0.9407     0.0000
 90 H      0.7878     1.0000     0.2122     0.9408     0.9408    -0.0000
 91 C      6.5674     6.0000    -0.5674     3.7886     3.7886    -0.0000
 92 C      5.6922     6.0000     0.3078     3.7231     3.7231    -0.0000
 93 N      7.3660     7.0000    -0.3660     2.8855     2.8855     0.0000
 94 H      0.7877     1.0000     0.2123     0.9407     0.9407    -0.0000
 95 H      0.7876     1.0000     0.2124     0.9407     0.9407    -0.0000
 96 H      0.7872     1.0000     0.2128     0.9405     0.9405    -0.0000
 97 C      6.5722     6.0000    -0.5722     3.7887     3.7887    -0.0000
 98 C      5.6760     6.0000     0.3240     3.7118     3.7118     0.0000
 99 N      7.3758     7.0000    -0.3758     2.8836     2.8836     0.0000
100 H      0.7872     1.0000     0.2128     0.9406     0.9406    -0.0000
101 H      0.7876     1.0000     0.2124     0.9407     0.9407    -0.0000
102 H      0.7877     1.0000     0.2123     0.9406     0.9406     0.0000
103 C      6.5790     6.0000    -0.5790     3.7897     3.7897     0.0000
104 C      5.6636     6.0000     0.3364     3.7013     3.7013     0.0000
105 N      7.3815     7.0000    -0.3815     2.8754     2.8754    -0.0000
106 H      0.7869     1.0000     0.2131     0.9402     0.9402    -0.0000
107 H      0.7864     1.0000     0.2136     0.9402     0.9402     0.0000
108 H      0.7862     1.0000     0.2138     0.9400     0.9400    -0.0000
109 C      6.5739     6.0000    -0.5739     3.7912     3.7912    -0.0000
110 C      5.6677     6.0000     0.3323     3.6884     3.6884     0.0000
111 N      7.3808     7.0000    -0.3808     2.8601     2.8601     0.0000
112 H      0.7868     1.0000     0.2132     0.9404     0.9404    -0.0000
113 H      0.7868     1.0000     0.2132     0.9404     0.9404    -0.0000
114 H      0.7870     1.0000     0.2130     0.9404     0.9404     0.0000
115 C      6.6122     6.0000    -0.6122     3.7796     3.7796     0.0000
116 C      5.6953     6.0000     0.3047     3.7595     3.7595    -0.0000
117 N      7.3787     7.0000    -0.3787     2.9379     2.9379    -0.0000
118 H      0.7700     1.0000     0.2300     0.9355     0.9355     0.0000
119 H      0.7789     1.0000     0.2211     0.9439     0.9439     0.0000
120 H      0.7830     1.0000     0.2170     0.9436     0.9436    -0.0000

  Mayer bond orders larger than 0.100000
B(  1-C ,  2-C ) :   0.9251 B(  1-C ,  4-H ) :   0.9238 B(  1-C ,  5-H ) :   0.9368 
B(  1-C ,  6-H ) :   0.9441 B(  2-C ,  3-N ) :   2.5931 B(  7-C ,  8-C ) :   0.9619 
B(  7-C , 10-H ) :   0.9493 B(  7-C , 11-H ) :   0.9070 B(  7-C , 12-H ) :   0.9283 
B(  8-C ,  9-N ) :   2.6193 B( 13-C , 14-C ) :   0.9471 B( 13-C , 16-H ) :   0.9395 
B( 13-C , 17-H ) :   0.9272 B( 13-C , 18-H ) :   0.9296 B( 14-C , 15-N ) :   2.6385 
B( 19-C , 20-C ) :   0.9732 B( 19-C , 22-H ) :   0.9210 B( 19-C , 23-H ) :   0.9419 
B( 19-C , 24-H ) :   0.9216 B( 20-C , 21-N ) :   2.6673 B( 25-C , 26-C ) :   0.9298 
B( 25-C , 28-H ) :   0.9212 B( 25-C , 29-H ) :   0.9424 B( 25-C , 30-H ) :   0.9325 
B( 26-C , 27-N ) :   2.5866 B( 31-C , 32-C ) :   1.0274 B( 31-C , 34-H ) :   0.9006 
B( 31-C , 35-H ) :   0.9226 B( 31-C , 36-H ) :   0.9392 B( 32-C , 33-N ) :   2.6756 
B( 37-C , 38-C ) :   0.9558 B( 37-C , 40-H ) :   0.9303 B( 37-C , 41-H ) :   0.9378 
B( 37-C , 42-H ) :   0.9188 B( 38-C , 39-N ) :   2.7301 B( 43-C , 44-C ) :   0.9359 
B( 43-C , 46-H ) :   0.9411 B( 43-C , 47-H ) :   0.9343 B( 43-C , 48-H ) :   0.9289 
B( 44-C , 45-N ) :   2.8387 B( 49-C , 50-C ) :   0.9712 B( 49-C , 52-H ) :   0.9433 
B( 49-C , 53-H ) :   0.9168 B( 49-C , 54-H ) :   0.9425 B( 50-C , 51-N ) :   2.7597 
B( 55-C , 56-C ) :   0.9686 B( 55-C , 58-H ) :   0.9405 B( 55-C , 59-H ) :   0.9407 
B( 55-C , 60-H ) :   0.9386 B( 56-C , 57-N ) :   2.7805 B( 61-C , 62-C ) :   0.9675 
B( 61-C , 64-H ) :   0.9411 B( 61-C , 65-H ) :   0.9394 B( 61-C , 66-H ) :   0.9405 
B( 62-C , 63-N ) :   2.7484 B( 67-C , 68-C ) :   0.9449 B( 67-C , 70-H ) :   0.9394 
B( 67-C , 71-H ) :   0.9258 B( 67-C , 72-H ) :   0.9393 B( 68-C , 69-N ) :   2.7577 
B( 73-C , 74-C ) :   1.0411 B( 73-C , 76-H ) :   0.9349 B( 73-C , 77-H ) :   0.9214 
B( 73-C , 78-H ) :   0.9210 B( 74-C , 75-N ) :   2.8504 B( 79-C , 80-C ) :   0.9519 
B( 79-C , 82-H ) :   0.9428 B( 79-C , 83-H ) :   0.9219 B( 79-C , 84-H ) :   0.9396 
B( 80-C , 81-N ) :   2.7931 B( 85-C , 86-C ) :   0.9701 B( 85-C , 88-H ) :   0.9398 
B( 85-C , 89-H ) :   0.9402 B( 85-C , 90-H ) :   0.9399 B( 86-C , 87-N ) :   2.7904 
B( 91-C , 92-C ) :   0.9702 B( 91-C , 94-H ) :   0.9397 B( 91-C , 95-H ) :   0.9401 
B( 91-C , 96-H ) :   0.9398 B( 92-C , 93-N ) :   2.7980 B( 97-C , 98-C ) :   0.9680 
B( 97-C ,100-H ) :   0.9405 B( 97-C ,101-H ) :   0.9404 B( 97-C ,102-H ) :   0.9405 
B( 98-C , 99-N ) :   2.7891 B(103-C ,104-C ) :   0.9712 B(103-C ,106-H ) :   0.9399 
B(103-C ,107-H ) :   0.9395 B(103-C ,108-H ) :   0.9398 B(104-C ,105-N ) :   2.7699 
B(109-C ,110-C ) :   0.9710 B(109-C ,112-H ) :   0.9407 B(109-C ,113-H ) :   0.9403 
B(109-C ,114-H ) :   0.9392 B(110-C ,111-N ) :   2.7574 B(115-C ,116-C ) :   0.9529 
B(115-C ,118-H ) :   0.9206 B(115-C ,119-H ) :   0.9372 B(115-C ,120-H ) :   0.9355 
B(116-C ,117-N ) :   2.8551 

-------
TIMINGS
-------

Total SCF time: 0 days 0 hours 6 min 10 sec 

Total time                  ....     370.194 sec
Sum of individual times     ....     337.125 sec  ( 91.1%)

Fock matrix formation       ....     298.284 sec  ( 80.6%)
  Split-RI-J                ....      60.359 sec  ( 20.2% of F)
  XC integration            ....      97.470 sec  ( 32.7% of F)
    Basis function eval.    ....      18.182 sec  ( 18.7% of XC)
    Density eval.           ....      34.104 sec  ( 35.0% of XC)
    XC-Functional eval.     ....      10.620 sec  ( 10.9% of XC)
    XC-Potential eval.      ....      26.902 sec  ( 27.6% of XC)
Diagonalization             ....       3.487 sec  (  0.9%)
Density matrix formation    ....       0.557 sec  (  0.2%)
Population analysis         ....       0.629 sec  (  0.2%)
Initial guess               ....       3.914 sec  (  1.1%)
Orbital Transformation      ....       0.000 sec  (  0.0%)
Orbital Orthonormalization  ....       0.000 sec  (  0.0%)
DIIS solution               ....       2.102 sec  (  0.6%)
SOSCF solution              ....       3.219 sec  (  0.9%)
Grid generation             ....      24.932 sec  (  6.7%)

Maximum memory used throughout the entire SCF-calculation: 1412.8 MB


-------------------------------------------------------------------------------
                          DFT DISPERSION CORRECTION                            
                                                                               
                                 DFTD4 V2.5                                    
-------------------------------------------------------------------------------
The R2SCAN3C composite method is recognized
Using three-body term ABC
Active option DFTDOPT                   ...         5   

Starting D4
-------------------------   ----------------
Dispersion correction           -0.045641729
-------------------------   ----------------

------------------   -----------------
gCP correction             0.059030053
------------------   -----------------

-------------------------   --------------------
FINAL SINGLE POINT ENERGY     -3254.395950098866
-------------------------   --------------------


                            ***************************************
                            *     ORCA property calculations      *
                            ***************************************

                                    ---------------------
                                    Active property flags
                                    ---------------------
   (+) Dipole Moment


------------------------------------------------------------------------------
                       ORCA ELECTRIC PROPERTIES CALCULATION
------------------------------------------------------------------------------

Dipole Moment Calculation                       ... on
Quadrupole Moment Calculation                   ... off
Polarizability Calculation                      ... off
GBWName                                         ... ORCA.gbw
Electron density                                ... ORCA.scfp
The origin for moment calculation is the CENTER OF MASS  = (-0.009743, -0.110033  0.019196)

-------------
DIPOLE MOMENT
-------------
                                X             Y             Z
Electronic contribution:      2.55799       1.32588       9.14735
Nuclear contribution   :      1.18167       1.98013      -9.88124
                        -----------------------------------------
Total Dipole Moment    :      3.73965       3.30601      -0.73389
                        -----------------------------------------
Magnitude (a.u.)       :      5.04513
Magnitude (Debye)      :     12.82369



--------------------
Rotational spectrum 
--------------------
 
Rotational constants in cm-1:     0.001060     0.000689     0.000626 
Rotational constants in MHz :    31.771820    20.658963    18.773206 

 Dipole components along the rotational axes: 
x,y,z [a.u.] :     4.145305     2.858062     0.318147 
x,y,z [Debye]:    10.536529     7.264616     0.808666 

 

Timings for individual modules:

Sum of individual times         ...      378.427 sec (=   6.307 min)
GTO integral calculation        ...        3.620 sec (=   0.060 min)   1.0 %
SCF iterations                  ...      374.807 sec (=   6.247 min)  99.0 %
                             ****ORCA TERMINATED NORMALLY****
TOTAL RUN TIME: 0 days 0 hours 6 minutes 38 seconds 462 msec
