
                                 *****************
                                 * O   R   C   A *
                                 *****************

                                            #,                                       
                                            ###                                      
                                            ####                                     
                                            #####                                    
                                            ######                                   
                                           ########,                                 
                                     ,,################,,,,,                         
                               ,,#################################,,                 
                          ,,##########################################,,             
                       ,#########################################, ''#####,          
                    ,#############################################,,   '####,        
                  ,##################################################,,,,####,       
                ,###########''''           ''''###############################       
              ,#####''   ,,,,##########,,,,          '''####'''          '####       
            ,##' ,,,,###########################,,,                        '##       
           ' ,,###''''                  '''############,,,                           
         ,,##''                                '''############,,,,        ,,,,,,###''
      ,#''                                            '''#######################'''  
     '                                                          ''''####''''         
             ,#######,   #######,   ,#######,      ##                                
            ,#'     '#,  ##    ##  ,#'     '#,    #''#        ######   ,####,        
            ##       ##  ##   ,#'  ##            #'  '#       #        #'  '#        
            ##       ##  #######   ##           ,######,      #####,   #    #        
            '#,     ,#'  ##    ##  '#,     ,#' ,#      #,         ##   #,  ,#        
             '#######'   ##     ##  '#######'  #'      '#     #####' # '####'        



                  #######################################################
                  #                        -***-                        #
                  #          Department of theory and spectroscopy      #
                  #    Directorship and core code : Frank Neese         #
                  #        Max Planck Institute fuer Kohlenforschung    #
                  #                Kaiser Wilhelm Platz 1               #
                  #                 D-45470 Muelheim/Ruhr               #
                  #                      Germany                        #
                  #                                                     #
                  #                  All rights reserved                #
                  #                        -***-                        #
                  #######################################################


                         Program Version 5.0.4 -  RELEASE  -


 With contributions from (in alphabetic order):
   Daniel Aravena         : Magnetic Suceptibility
   Michael Atanasov       : Ab Initio Ligand Field Theory (pilot matlab implementation)
   Alexander A. Auer      : GIAO ZORA, VPT2 properties, NMR spectrum
   Ute Becker             : Parallelization
   Giovanni Bistoni       : ED, misc. LED, open-shell LED, HFLD
   Martin Brehm           : Molecular dynamics
   Dmytro Bykov           : SCF Hessian
   Vijay G. Chilkuri      : MRCI spin determinant printing, contributions to CSF-ICE
   Dipayan Datta          : RHF DLPNO-CCSD density
   Achintya Kumar Dutta   : EOM-CC, STEOM-CC
   Dmitry Ganyushin       : Spin-Orbit,Spin-Spin,Magnetic field MRCI
   Miquel Garcia          : C-PCM and meta-GGA Hessian, CC/C-PCM, Gaussian charge scheme
   Yang Guo               : DLPNO-NEVPT2, F12-NEVPT2, CIM, IAO-localization
   Andreas Hansen         : Spin unrestricted coupled pair/coupled cluster methods
   Benjamin Helmich-Paris : MC-RPA, TRAH-SCF, COSX integrals
   Lee Huntington         : MR-EOM, pCC
   Robert Izsak           : Overlap fitted RIJCOSX, COSX-SCS-MP3, EOM
   Marcus Kettner         : VPT2
   Christian Kollmar      : KDIIS, OOCD, Brueckner-CCSD(T), CCSD density, CASPT2, CASPT2-K
   Simone Kossmann        : Meta GGA functionals, TD-DFT gradient, OOMP2, MP2 Hessian
   Martin Krupicka        : Initial AUTO-CI
   Lucas Lang             : DCDCAS
   Marvin Lechner         : AUTO-CI (C++ implementation), FIC-MRCC
   Dagmar Lenk            : GEPOL surface, SMD
   Dimitrios Liakos       : Extrapolation schemes; Compound Job, initial MDCI parallelization
   Dimitrios Manganas     : Further ROCIS development; embedding schemes
   Dimitrios Pantazis     : SARC Basis sets
   Anastasios Papadopoulos: AUTO-CI, single reference methods and gradients
   Taras Petrenko         : DFT Hessian,TD-DFT gradient, ASA, ECA, R-Raman, ABS, FL, XAS/XES, NRVS
   Peter Pinski           : DLPNO-MP2, DLPNO-MP2 Gradient
   Christoph Reimann      : Effective Core Potentials
   Marius Retegan         : Local ZFS, SOC
   Christoph Riplinger    : Optimizer, TS searches, QM/MM, DLPNO-CCSD(T), (RO)-DLPNO pert. Triples
   Tobias Risthaus        : Range-separated hybrids, TD-DFT gradient, RPA, STAB
   Michael Roemelt        : Original ROCIS implementation
   Masaaki Saitow         : Open-shell DLPNO-CCSD energy and density
   Barbara Sandhoefer     : DKH picture change effects
   Avijit Sen             : IP-ROCIS
   Kantharuban Sivalingam : CASSCF convergence, NEVPT2, FIC-MRCI
   Bernardo de Souza      : ESD, SOC TD-DFT
   Georgi Stoychev        : AutoAux, RI-MP2 NMR, DLPNO-MP2 response
   Willem Van den Heuvel  : Paramagnetic NMR
   Boris Wezisla          : Elementary symmetry handling
   Frank Wennmohs         : Technical directorship


 We gratefully acknowledge several colleagues who have allowed us to
 interface, adapt or use parts of their codes:
   Stefan Grimme, W. Hujo, H. Kruse, P. Pracht,  : VdW corrections, initial TS optimization,
                  C. Bannwarth, S. Ehlert          DFT functionals, gCP, sTDA/sTD-DF
   Ed Valeev, F. Pavosevic, A. Kumar             : LibInt (2-el integral package), F12 methods
   Garnet Chan, S. Sharma, J. Yang, R. Olivares  : DMRG
   Ulf Ekstrom                                   : XCFun DFT Library
   Mihaly Kallay                                 : mrcc  (arbitrary order and MRCC methods)
   Jiri Pittner, Ondrej Demel                    : Mk-CCSD
   Frank Weinhold                                : gennbo (NPA and NBO analysis)
   Christopher J. Cramer and Donald G. Truhlar   : smd solvation model
   Lars Goerigk                                  : TD-DFT with DH, B97 family of functionals
   V. Asgeirsson, H. Jonsson                     : NEB implementation
   FAccTs GmbH                                   : IRC, NEB, NEB-TS, DLPNO-Multilevel, CI-OPT
                                                   MM, QMMM, 2- and 3-layer-ONIOM, Crystal-QMMM,
                                                   LR-CPCM, SF, NACMEs, symmetry and pop. for TD-DFT,
                                                   nearIR, NL-DFT gradient (VV10), updates on ESD,
                                                   ML-optimized integration grids
   S Lehtola, MJT Oliveira, MAL Marques          : LibXC Library
   Liviu Ungur et al                             : ANISO software


 Your calculation uses the libint2 library for the computation of 2-el integrals
 For citations please refer to: http://libint.valeyev.net

 Your ORCA version has been built with support for libXC version: 5.1.0
 For citations please refer to: https://tddft.org/programs/libxc/

 This ORCA versions uses:
   CBLAS   interface :  Fast vector & matrix operations
   LAPACKE interface :  Fast linear algebra routines
   SCALAPACK package :  Parallel linear algebra routines
   Shared memory     :  Shared parallel matrices
   BLAS/LAPACK       :  OpenBLAS 0.3.15  USE64BITINT DYNAMIC_ARCH NO_AFFINITY SkylakeX SINGLE_THREADED
        Core in use  :  SkylakeX
   Copyright (c) 2011-2014, The OpenBLAS Project




***************************************
The coordinates will be read from file: xtbopt.xyz
***************************************


Your calculation utilizes the geometrical counterpoise correction gCP
Please cite in your paper:
H.Kruse, S. Grimme J.Chem.Phys., 136, (2012), 154101 
   

Your calculation utilizes the atom-pairwise dispersion correction
based on tight binding partial charges (D4)
Cite in your paper:
E.Caldeweyher, C.Bannwarth, S.Grimme, J.Chem.Phys., (2017), 147, 034112.
E.Caldeweyher, S.Ehlert, A.Hansen, H.Neugebauer, S.Grimme, J.Chem.Phys., (2018), in progress.
   

Your calculation utilizes the SMD solvation module
Please cite in your paper:
A.V. Marenich, C.J. Cramer, D.G. Truhlar J. Phys. Chem. B, 113, (2009), 6378 

================================================================================

----- Orbital basis set information -----
Your calculation utilizes the basis: def2-mTZVPP
   Stefan Grimme, Andreas Hansen, Sebastian Ehlert, and Jan-Michael Mewes 
   J. Chem. Phys. 154, 000000 (2021). DOI: 10.1063/5.0040021

----- AuxJ basis set information -----
Your calculation utilizes the auxiliary basis: def2/J
   F. Weigend, Phys. Chem. Chem. Phys. 8, 1057 (2006).

================================================================================
                                        WARNINGS
                       Please study these warnings very carefully!
================================================================================

Using LibXC functional ID 497 : Re-regularized SCAN exchange by Furness et al
[ 1]  J. W. Furness, A. D. Kaplan, J. Ning, J. P. Perdew, and J. Sun, J. Phys. Chem. Lett. 11, 8208 (2020)
[ 2]  J. W. Furness, A. D. Kaplan, J. Ning, J. P. Perdew, and J. Sun, J. Phys. Chem. Lett. 11, 9248 (2020)
Using LibXC functional ID 498 : Re-regularized SCAN correlation by Furness et al
[ 1]  J. W. Furness, A. D. Kaplan, J. Ning, J. P. Perdew, and J. Sun, J. Phys. Chem. Lett. 11, 8208 (2020)
[ 2]  J. W. Furness, A. D. Kaplan, J. Ning, J. P. Perdew, and J. Sun, J. Phys. Chem. Lett. 11, 9248 (2020)
Using LibXC functional ID 497 : Re-regularized SCAN exchange by Furness et al
[ 1]  J. W. Furness, A. D. Kaplan, J. Ning, J. P. Perdew, and J. Sun, J. Phys. Chem. Lett. 11, 8208 (2020)
[ 2]  J. W. Furness, A. D. Kaplan, J. Ning, J. P. Perdew, and J. Sun, J. Phys. Chem. Lett. 11, 9248 (2020)
Using LibXC functional ID 498 : Re-regularized SCAN correlation by Furness et al
[ 1]  J. W. Furness, A. D. Kaplan, J. Ning, J. P. Perdew, and J. Sun, J. Phys. Chem. Lett. 11, 8208 (2020)
[ 2]  J. W. Furness, A. D. Kaplan, J. Ning, J. P. Perdew, and J. Sun, J. Phys. Chem. Lett. 11, 9248 (2020)

INFO   : the flag for use of the SHARK integral package has been found!

================================================================================
                                       INPUT FILE
================================================================================
NAME = ORCA.in
|  1> ! r2SCAN-3c ENERGY TightSCF defgrid3 def2/J
|  2> %maxcore 8000
|  3> %PAL NPROCS 8 END
|  4> %CPCM SMD TRUE
|  5>       SMDSOLVENT "MeCN"
|  6> END
|  7> *xyzfile 1 1  xtbopt.xyz
|  8> 
|  9>                          ****END OF INPUT****
================================================================================

                       ****************************
                       * Single Point Calculation *
                       ****************************

---------------------------------
CARTESIAN COORDINATES (ANGSTROEM)
---------------------------------
  Li    -2.110775   -1.843178    1.105086
  C      1.534650   -0.833530    1.730748
  C      1.683659   -0.205104    0.459013
  N      1.791341    0.290906   -0.568575
  H      0.501327   -1.164383    1.840212
  H      1.783097   -0.128574    2.524140
  H      2.202069   -1.691982    1.790821
  C     -1.042070    1.848964   -1.304557
  C     -1.482432    0.800745   -0.456087
  N     -1.843570   -0.049092    0.220772
  H     -1.573705    1.796963   -2.256515
  H      0.028688    1.731114   -1.470970
  H     -1.233069    2.812860   -0.835712
  C     -0.201524   -4.803476   -1.623964
  C     -0.560843   -3.898268   -0.590812
  N     -0.847965   -3.171292    0.245446
  H     -0.518628   -4.381658   -2.579039
  H     -0.701049   -5.757028   -1.458613
  H      0.879324   -4.941778   -1.636323
  C     -3.380214   -1.235489   -2.872835
  C     -2.243238   -1.965335   -3.325347
  N     -1.327727   -2.552228   -3.688818
  H     -3.355038   -1.175765   -1.785128
  H     -4.290109   -1.744989   -3.190610
  H     -3.354723   -0.230699   -3.294718
  C     -5.286839   -4.362466   -0.745778
  C     -4.512588   -3.420713   -0.018741
  N     -3.893039   -2.659733    0.571600
  H     -5.483795   -3.981085   -1.749241
  H     -6.231914   -4.539989   -0.234598
  H     -4.725403   -5.294828   -0.810395
  C      3.989762    3.481145   -4.606813
  C      3.465421    4.217100   -3.500903
  N      3.037036    4.813063   -2.620814
  H      3.172693    3.011820   -5.152609
  H      4.670682    2.711113   -4.241190
  H      4.531926    4.155427   -5.268445
  C      3.602495    4.933469    0.664285
  C      2.495043    4.751746    1.537965
  N      1.614358    4.601443    2.258277
  H      4.047365    5.912382    0.837307
  H      3.274479    4.865000   -0.373750
  H      4.342692    4.156055    0.858509
  C     -2.621039   -0.155871    5.192885
  C     -2.318874   -0.923426    4.036859
  N     -2.072895   -1.546921    3.108136
  H     -2.614485    0.902499    4.919392
  H     -1.873388   -0.333008    5.964577
  H     -3.605808   -0.426650    5.570718
  C      2.683429   -2.623969    5.080357
  C      3.346721   -3.174124    3.942477
  N      3.870285   -3.612746    3.022143
  H      2.534513   -1.553757    4.928683
  H      3.294239   -2.781562    5.968353
  H      1.719295   -3.113193    5.209746
  C     -4.771050    1.026707    2.097882
  C     -5.358714    1.877252    1.113423
  N     -5.829431    2.564096    0.326040
  H     -4.130089    1.625684    2.746367
  H     -4.169456    0.259615    1.608582
  H     -5.558083    0.559081    2.686903
  C     -1.504350    5.061861    3.363846
  C     -2.090707    3.813202    3.709138
  N     -2.557425    2.802782    3.988060
  H     -0.496937    4.897755    2.978028
  H     -1.458568    5.703393    4.242672
  H     -2.111518    5.545319    2.596691
  C      7.183165    0.421113    1.962911
  C      6.400528    1.582271    1.679319
  N      5.777364    2.517952    1.459433
  H      8.238300    0.690094    1.986969
  H      7.018584   -0.330031    1.188192
  H      6.888588    0.010858    2.927901
  C      2.455999    3.178180    5.155577
  C      2.401289    1.773676    4.914703
  N      2.351965    0.645784    4.717754
  H      3.484101    3.473802    5.360724
  H      1.825963    3.429444    6.007538
  H      2.101282    3.704456    4.266723
  C     -5.609542    5.760448   -0.345120
  C     -4.476085    6.085502    0.460592
  N     -3.564118    6.334001    1.108267
  H     -5.813538    4.692034   -0.247923
  H     -5.399387    5.999899   -1.386331
  H     -6.474271    6.328974   -0.006202
  C      1.877316   -1.617456   -3.296860
  C      2.534481   -2.766281   -2.768534
  N      3.045566   -3.695943   -2.333472
  H      1.898802   -0.825538   -2.546477
  H      0.841763   -1.871822   -3.529243
  H      2.386596   -1.284560   -4.199337
  C     -2.023886   -5.401771    2.645514
  C     -2.451269   -5.882580    1.369683
  N     -2.797195   -6.271388    0.349111
  H     -1.031960   -5.793431    2.866259
  H     -2.724744   -5.731575    3.411160
  H     -1.990313   -4.312040    2.617499
  C      8.031328   -0.275395   -2.732976
  C      6.979979    0.507031   -3.300608
  N      6.140213    1.135857   -3.760750
  H      7.638850   -0.855692   -1.895738
  H      8.823745    0.383031   -2.379824
  H      8.429016   -0.953165   -3.487183
  C      5.274929   -4.084723    0.068032
  C      6.136330   -2.964329   -0.097600
  N      6.827106   -2.057205   -0.227021
  H      4.795631   -4.026060    1.046063
  H      5.852330   -5.005019   -0.002583
  H      4.514579   -4.067283   -0.714745
  C     -7.457822   -3.303253   -5.859894
  C     -6.683966   -3.218593   -4.662411
  N     -6.065667   -3.149714   -3.700689
  H     -7.968974   -2.356245   -6.030345
  H     -8.194591   -4.099768   -5.760283
  H     -6.801649   -3.519882   -6.702308
  C     -2.965710    3.481583   -6.108636
  C     -2.863804    2.580305   -5.004870
  N     -2.781484    1.858561   -4.119346
  H     -4.011901    3.734653   -6.277170
  H     -2.557236    3.010438   -7.002098
  H     -2.404021    4.388856   -5.887830

----------------------------
CARTESIAN COORDINATES (A.U.)
----------------------------
  NO LB      ZA    FRAG     MASS         X           Y           Z
   0 Li    3.0000    0     6.941   -3.988787   -3.483101    2.088310
   1 C     6.0000    0    12.011    2.900068   -1.575144    3.270639
   2 C     6.0000    0    12.011    3.181655   -0.387591    0.867409
   3 N     7.0000    0    14.007    3.385143    0.549732   -1.074451
   4 H     1.0000    0     1.008    0.947371   -2.200364    3.477496
   5 H     1.0000    0     1.008    3.369564   -0.242970    4.769933
   6 H     1.0000    0     1.008    4.161307   -3.197382    3.384162
   7 C     6.0000    0    12.011   -1.969227    3.494035   -2.465255
   8 C     6.0000    0    12.011   -2.801390    1.513188   -0.861880
   9 N     7.0000    0    14.007   -3.483842   -0.092771    0.417199
  10 H     1.0000    0     1.008   -2.973872    3.395769   -4.264195
  11 H     1.0000    0     1.008    0.054212    3.271331   -2.779731
  12 H     1.0000    0     1.008   -2.330163    5.315535   -1.579266
  13 C     6.0000    0    12.011   -0.380825   -9.077254   -3.068846
  14 C     6.0000    0    12.011   -1.059840   -7.366660   -1.116473
  15 N     7.0000    0    14.007   -1.602421   -5.992873    0.463825
  16 H     1.0000    0     1.008   -0.980065   -8.280134   -4.873678
  17 H     1.0000    0     1.008   -1.324790  -10.879206   -2.756379
  18 H     1.0000    0     1.008    1.661682   -9.338607   -3.092202
  19 C     6.0000    0    12.011   -6.387679   -2.334736   -5.428872
  20 C     6.0000    0    12.011   -4.239105   -3.713944   -6.283996
  21 N     7.0000    0    14.007   -2.509041   -4.823013   -6.970855
  22 H     1.0000    0     1.008   -6.340103   -2.221875   -3.373403
  23 H     1.0000    0     1.008   -8.107131   -3.297551   -6.029379
  24 H     1.0000    0     1.008   -6.339508   -0.435957   -6.226115
  25 C     6.0000    0    12.011   -9.990677   -8.243867   -1.409317
  26 C     6.0000    0    12.011   -8.527556   -6.464210   -0.035416
  27 N     7.0000    0    14.007   -7.356777   -5.026166    1.080167
  28 H     1.0000    0     1.008  -10.362872   -7.523160   -3.305587
  29 H     1.0000    0     1.008  -11.776610   -8.579337   -0.443325
  30 H     1.0000    0     1.008   -8.929717  -10.005776   -1.531424
  31 C     6.0000    0    12.011    7.539558    6.578410   -8.705615
  32 C     6.0000    0    12.011    6.548697    7.969165   -6.615748
  33 N     7.0000    0    14.007    5.739166    9.095370   -4.952620
  34 H     1.0000    0     1.008    5.995521    5.691516   -9.737019
  35 H     1.0000    0     1.008    8.826309    5.123261   -8.014687
  36 H     1.0000    0     1.008    8.564098    7.852619   -9.955917
  37 C     6.0000    0    12.011    6.807728    9.322905    1.255317
  38 C     6.0000    0    12.011    4.714948    8.979499    2.906333
  39 N     7.0000    0    14.007    3.050695    8.695467    4.267525
  40 H     1.0000    0     1.008    7.648412   11.172782    1.582282
  41 H     1.0000    0     1.008    6.187868    9.193517   -0.706286
  42 H     1.0000    0     1.008    8.206498    7.853805    1.622348
  43 C     6.0000    0    12.011   -4.953046   -0.294553    9.813130
  44 C     6.0000    0    12.011   -4.382036   -1.745021    7.628557
  45 N     7.0000    0    14.007   -3.917203   -2.923258    5.873525
  46 H     1.0000    0     1.008   -4.940661    1.705476    9.296303
  47 H     1.0000    0     1.008   -3.540190   -0.629294   11.271416
  48 H     1.0000    0     1.008   -6.813990   -0.806251   10.527131
  49 C     6.0000    0    12.011    5.070946   -4.958583    9.600483
  50 C     6.0000    0    12.011    6.324386   -5.998226    7.450202
  51 N     7.0000    0    14.007    7.313780   -6.827101    5.711023
  52 H     1.0000    0     1.008    4.789535   -2.936174    9.313860
  53 H     1.0000    0     1.008    6.225210   -5.256390   11.278552
  54 H     1.0000    0     1.008    3.248996   -5.883082    9.844994
  55 C     6.0000    0    12.011   -9.015977    1.940195    3.964422
  56 C     6.0000    0    12.011  -10.126502    3.547492    2.104064
  57 N     7.0000    0    14.007  -11.016028    4.845439    0.616126
  58 H     1.0000    0     1.008   -7.804737    3.072098    5.189882
  59 H     1.0000    0     1.008   -7.879130    0.490601    3.039779
  60 H     1.0000    0     1.008  -10.503254    1.056510    5.077511
  61 C     6.0000    0    12.011   -2.842809    9.565532    6.356747
  62 C     6.0000    0    12.011   -3.950864    7.205907    7.009255
  63 N     7.0000    0    14.007   -4.832833    5.296491    7.536342
  64 H     1.0000    0     1.008   -0.939075    9.255416    5.627657
  65 H     1.0000    0     1.008   -2.756294   10.777850    8.017488
  66 H     1.0000    0     1.008   -3.990190   10.479135    4.907035
  67 C     6.0000    0    12.011   13.574214    0.795788    3.709365
  68 C     6.0000    0    12.011   12.095245    2.990059    3.173452
  69 N     7.0000    0    14.007   10.917636    4.758240    2.757929
  70 H     1.0000    0     1.008   15.568131    1.304089    3.754827
  71 H     1.0000    0     1.008   13.263201   -0.623669    2.245358
  72 H     1.0000    0     1.008   13.017544    0.020519    5.532930
  73 C     6.0000    0    12.011    4.641165    6.005891    9.742628
  74 C     6.0000    0    12.011    4.537779    3.351762    9.287442
  75 N     7.0000    0    14.007    4.444571    1.220355    8.915263
  76 H     1.0000    0     1.008    6.583997    6.564534   10.130299
  77 H     1.0000    0     1.008    3.450571    6.480709   11.352601
  78 H     1.0000    0     1.008    3.970848    7.000408    8.062937
  79 C     6.0000    0    12.011  -10.600497   10.885669   -0.652182
  80 C     6.0000    0    12.011   -8.458575   11.499933    0.870392
  81 N     7.0000    0    14.007   -6.735207   11.969527    2.094322
  82 H     1.0000    0     1.008  -10.985996    8.866658   -0.468506
  83 H     1.0000    0     1.008  -10.203364   11.338166   -2.619786
  84 H     1.0000    0     1.008  -12.234600   11.960028   -0.011720
  85 C     6.0000    0    12.011    3.547613   -3.056549   -6.230163
  86 C     6.0000    0    12.011    4.789476   -5.227514   -5.231772
  87 N     7.0000    0    14.007    5.755286   -6.984321   -4.409623
  88 H     1.0000    0     1.008    3.588217   -1.560040   -4.812144
  89 H     1.0000    0     1.008    1.590701   -3.537231   -6.669302
  90 H     1.0000    0     1.008    4.510013   -2.427466   -7.935597
  91 C     6.0000    0    12.011   -3.824591  -10.207868    4.999296
  92 C     6.0000    0    12.011   -4.632228  -11.116465    2.588326
  93 N     7.0000    0    14.007   -5.285933  -11.851206    0.659725
  94 H     1.0000    0     1.008   -1.950122  -10.947998    5.416444
  95 H     1.0000    0     1.008   -5.149020  -10.831107    6.446158
  96 H     1.0000    0     1.008   -3.761147   -8.148575    4.946357
  97 C     6.0000    0    12.011   15.177010   -0.520421   -5.164576
  98 C     6.0000    0    12.011   13.190249    0.958150   -6.237245
  99 N     7.0000    0    14.007   11.603321    2.146460   -7.106788
 100 H     1.0000    0     1.008   14.435335   -1.617024   -3.582427
 101 H     1.0000    0     1.008   16.674461    0.723824   -4.497215
 102 H     1.0000    0     1.008   15.928533   -1.801221   -6.589822
 103 C     6.0000    0    12.011    9.968172   -7.719008    0.128562
 104 C     6.0000    0    12.011   11.595983   -5.601769   -0.184437
 105 N     7.0000    0    14.007   12.901361   -3.887554   -0.429008
 106 H     1.0000    0     1.008    9.062429   -7.608151    1.976772
 107 H     1.0000    0     1.008   11.059300   -9.458116   -0.004880
 108 H     1.0000    0     1.008    8.531317   -7.686051   -1.350673
 109 C     6.0000    0    12.011  -14.093240   -6.242244  -11.073594
 110 C     6.0000    0    12.011  -12.630866   -6.082259   -8.810681
 111 N     7.0000    0    14.007  -11.462449   -5.952097   -6.993288
 112 H     1.0000    0     1.008  -15.059178   -4.452657  -11.395701
 113 H     1.0000    0     1.008  -15.485533   -7.747439  -10.885356
 114 H     1.0000    0     1.008  -12.853254   -6.651613  -12.665527
 115 C     6.0000    0    12.011   -5.604380    6.579239  -11.543650
 116 C     6.0000    0    12.011   -5.411806    4.876070   -9.457834
 117 N     7.0000    0    14.007   -5.256243    3.512171   -7.784436
 118 H     1.0000    0     1.008   -7.581395    7.057471  -11.862132
 119 H     1.0000    0     1.008   -4.832476    5.688903  -13.232048
 120 H     1.0000    0     1.008   -4.542941    8.293736  -11.126387

--------------------------------
INTERNAL COORDINATES (ANGSTROEM)
--------------------------------
 Li     0   0   0     0.000000000000     0.00000000     0.00000000
 C      1   0   0     3.834053102929     0.00000000     0.00000000
 C      2   1   0     1.426334861908    94.00569979     0.00000000
 N      3   2   1     1.146105810412   179.19706276   336.92918681
 H      2   1   3     1.090505335387    15.32129814   165.15650029
 H      2   1   3     1.090027354226   120.38439694   115.87503465
 H      2   1   3     1.089034405677   112.58936364   247.03919595
 C      4   3   2     3.316237068093   108.78629265    61.20831583
 C      8   4   3     1.418655224297    77.60404870   331.94940817
 N      9   8   4     1.144894017540   179.47425081   241.95247720
 H      8   4   3     1.091588014185   125.96448535   226.60911205
 H      8   4   3     1.090001846169    31.10359042   159.51167240
 H      8   4   3     1.088757650079   118.05143239    78.19900566
 C      1   2   3     4.456042363204    82.38595717    73.01343773
 C     14   1   2     1.419828529158    12.14393040    32.65957279
 N     15  14   1     1.144666279741   179.74722477   148.76019651
 H     14   1   2     1.091171467070    98.90074743   249.81788381
 H     14   1   2     1.089094760868   106.98684468   135.88724139
 H     14   1   2     1.089730909415   121.07973957     8.58838631
 C     11   8   4     3.583168057123   115.84011730    75.31583155
 C     20  11   8     1.424835591388    94.92327566   277.99224918
 N     21  20  11     1.146609990278   179.95117577    38.40825980
 H     20  11   8     1.089636968122    76.71852967    26.44680720
 H     20  11   8     1.090174326952   150.04940575   132.80116281
 H     20  11   8     1.090063602329    43.50451300   164.96088855
 C     24  20  11     3.717775961636   111.16886086   229.07161367
 C     26  24  20     1.419488108915    73.94779405    24.61070696
 N     27  26  24     1.145179051298   179.67680298   118.89830533
 H     26  24  20     1.091412790984    36.65423843   191.76061075
 H     26  24  20     1.089030254437   131.00309180   127.32803348
 H     26  24  20     1.090268133139   115.15344094   281.36555629
 C     12   8   4     5.346609083089   141.43784719   174.37952759
 C     32  12   8     1.428145741026    56.11651987    79.00770540
 N     33  32  12     1.145968308829   179.40573576   267.89102808
 H     32  12   8     1.088926590141    66.23431438   301.59083229
 H     32  12   8     1.090999872663    91.99490605   191.24208967
 H     32  12   8     1.089198769094   158.07531758    25.20464088
 C     34  33  32     3.335583330411   135.37875812   178.21496164
 C     38  34  33     1.422247816397   117.92944879   234.20033229
 N     39  38  34     1.147626179701   178.98211748   163.19093015
 H     38  34  33     1.089090073427   104.96069994   111.89026745
 H     38  34  33     1.090779808550     7.90952159   236.09932352
 H     38  34  33     1.090865682920   105.34641757   356.23066183
 C      1   2   3     4.451682073282    81.91310466   227.00245807
 C     44   1   2     1.420155038884    12.38787450   287.68985308
 N     45  44   1     1.145329152043   179.69093759   184.08654079
 H     44   1   2     1.093154812187    97.84781269    78.19662058
 H     44   1   2     1.088975918234   120.68818192   320.16567801
 H     44   1   2     1.088967200459   109.14809968   192.00405542
 C      7   2   1     3.452730712089   110.53449604   264.54417180
 C     50   7   2     1.427374202281    53.79467730   185.75098473
 N     51  50   7     1.146090591091   179.41747899   334.79544068
 H     50   7   2     1.091116627227    65.40375009   327.54254036
 H     50   7   2     1.089248077845   153.37216683   243.21899294
 H     50   7   2     1.088869592513    96.37562292    76.27072702
 C     47  44   1     3.553465457510   103.22970294    45.36386379
 C     56  47  44     1.427562893405   144.90658525   179.91632456
 N     57  56  47     1.145993489137   179.74518491   341.82209014
 H     56  47  44     1.090934477145    35.96604026   181.11743081
 H     56  47  44     1.090761149309    89.82126975   305.45267735
 H     56  47  44     1.088595954369    89.66340616    55.29288423
 C     40  39  38     3.340749310906   154.96566955   152.70327697
 C     62  40  39     1.422038004845   110.13727084   133.18734241
 N     63  62  40     1.147419372069   179.64865389    18.41607126
 H     62  40  39     1.091176504377     1.59718188    64.84174334
 H     62  40  39     1.089033509762   107.99890194   253.08108192
 H     62  40  39     1.091288533145   110.35361305    12.44053734
 C     43  38  34     4.820558129615   173.11029583   252.48561411
 C     68  43  38     1.428717660817     3.66667584   233.98640117
 N     69  68  43     1.145504958759   179.50752344   158.81831090
 H     68  43  38     1.089146395019   112.61606937   200.81614084
 H     68  43  38     1.091555723255   106.36295570    81.02713027
 H     68  43  38     1.089169090204   109.60022777   323.09967826
 C     40  39  38     3.335922838097   114.04117154   346.04316105
 C     74  40  39     1.426059410927   105.29682877   273.58389299
 N     75  74  40     1.146020074088   179.68081875   318.65665035
 H     74  40  39     1.089253133200   106.61352618    29.96790236
 H     74  40  39     1.088997299601   115.78943994   152.22472086
 H     74  40  39     1.092177467196     6.09130032   146.07479938
 C     58  57  56     3.273449763381   134.30739816    19.90575975
 C     80  58  57     1.428130028178    99.20040206    12.78094143
 N     81  80  58     1.145826751337   179.36864314    14.23441123
 H     80  58  57     1.092048981048     9.56022229   186.81411662
 H     80  58  57     1.088862905847   115.07176500   129.64283133
 H     80  58  57     1.088965220610   113.11823786   256.73775261
 C      4   3   2     3.330582159788   119.26858854   312.35281307
 C     86   4   3     1.425059637057    99.79496781   327.02426462
 N     87  86   4     1.146628921962   178.95188241    74.42530598
 H     86   4   3     1.091178748412    11.86001158   187.28720547
 H     86   4   3     1.091363548528   106.46770053    80.52575796
 H     86   4   3     1.088416611065   121.06768520   206.71408568
 C     16  15  14     3.481114232183   100.45677186   310.47889029
 C     92  16  15     1.428837476573    72.60406036   321.73104828
 N     93  92  16     1.145601655788   179.73948826   193.09478096
 H     92  16  15     1.089056241191    93.58361533    70.96342908
 H     92  16  15     1.089121841907   153.64807211   222.84520161
 H     92  16  15     1.090608059895    48.06163807   184.35422544
 C     72  68  43     4.050209339982   129.80239006    68.90913767
 C     98  72  68     1.428191302304   102.01136218   278.96787088
 N     99  98  72     1.145583292547   179.69407925   158.98873432
 H     98  72  68     1.091673126572    32.90595224   171.82126137
 H     98  72  68     1.089112325458    82.88616146    27.43891062
 H     98  72  68     1.089200411393   138.87555876   139.18330060
 C     88  87  86     3.299762796057   132.28399408   254.28831457
 C    104  88  87     1.422929604459   103.38606505   322.17434747
 N    105 104  88     1.147516926744   179.66398521    89.74462858
 H    104  88  87     1.090739063315   110.44812673    78.82887388
 H    104  88  87     1.088725193764   114.24865529   203.02476915
 H    104  88  87     1.091411125604     5.99185356   162.17153392
 C     24  20  11     4.425795472886   159.67407839    73.26309186
 C    110  24  20     1.428279727727    23.89006986   161.09898136
 N    111 110  24     1.145403523792   179.85678398   112.34649023
 H    110  24  20     1.089566519821    97.12929271   284.35140025
 H    110  24  20     1.089581525089   133.33211548   158.99819895
 H    110  24  20     1.089565164121    96.04284672    34.96786912
 C     11   8   4     4.428821383301   153.31420726   251.46269667
 C    116  11   8     1.428631099695    20.87074814   192.18062704
 N    117 116  11     1.145357829564   179.93982362    13.02104426
 H    116  11   8     1.089478798264   121.64955037   251.28170319
 H    116  11   8     1.089542829905   115.52686495   114.50929595
 H    116  11   8     1.089675961573    88.76475183     3.48495536

---------------------------
INTERNAL COORDINATES (A.U.)
---------------------------
 Li     0   0   0     0.000000000000     0.00000000     0.00000000
 C      1   0   0     7.245310347447     0.00000000     0.00000000
 C      2   1   0     2.695382264271    94.00569979     0.00000000
 N      3   2   1     2.165826102175   179.19706276   336.92918681
 H      2   1   3     2.060756431462    15.32129814   165.15650029
 H      2   1   3     2.059853177970   120.38439694   115.87503465
 H      2   1   3     2.057976777147   112.58936364   247.03919595
 C      4   3   2     6.266779853854   108.78629265    61.20831583
 C      8   4   3     2.680869852378    77.60404870   331.94940817
 N      9   8   4     2.163536145515   179.47425081   241.95247720
 H      8   4   3     2.062802397881   125.96448535   226.60911205
 H      8   4   3     2.059804974727    31.10359042   159.51167240
 H      8   4   3     2.057453784862   118.05143239    78.19900566
 C      1   2   3     8.420699707607    82.38595717    73.01343773
 C     14   1   2     2.683087077236    12.14393040    32.65957279
 N     15  14   1     2.163105783445   179.74722477   148.76019651
 H     14   1   2     2.062015237912    98.90074743   249.81788381
 H     14   1   2     2.058090831930   106.98684468   135.88724139
 H     14   1   2     2.059292978462   121.07973957     8.58838631
 C     11   8   4     6.771206319777   115.84011730    75.31583155
 C     20  11   8     2.692549053586    94.92327566   277.99224918
 N     21  20  11     2.166778864044   179.95117577    38.40825980
 H     20  11   8     2.059115455147    76.71852967    26.44680720
 H     20  11   8     2.060130916172   150.04940575   132.80116281
 H     20  11   8     2.059921676957    43.50451300   164.96088855
 C     24  20  11     7.025578394768   111.16886086   229.07161367
 C     26  24  20     2.682443776208    73.94779405    24.61070696
 N     27  26  24     2.164074781258   179.67680298   118.89830533
 H     26  24  20     2.062471274018    36.65423843   191.76061075
 H     26  24  20     2.057968932440   131.00309180   127.32803348
 H     26  24  20     2.060308184175   115.15344094   281.36555629
 C     12   8   4    10.103626912175   141.43784719   174.37952759
 C     32  12   8     2.698804329864    56.11651987    79.00770540
 N     33  32  12     2.165566261840   179.40573576   267.89102808
 H     32  12   8     2.057773035311    66.23431438   301.59083229
 H     32  12   8     2.061690971477    91.99490605   191.24208967
 H     32  12   8     2.058287378992   158.07531758    25.20464088
 C     34  33  32     6.303338991350   135.37875812   178.21496164
 C     38  34  33     2.687658867559   117.92944879   234.20033229
 N     39  38  34     2.168699183754   178.98211748   163.19093015
 H     38  34  33     2.058081973950   104.96069994   111.89026745
 H     38  34  33     2.061275110571     7.90952159   236.09932352
 H     38  34  33     2.061437389611   105.34641757   356.23066183
 C      1   2   3     8.412459953789    81.91310466   227.00245807
 C     44   1   2     2.683704091199    12.38787450   287.68985308
 N     45  44   1     2.164358430557   179.69093759   184.08654079
 H     44   1   2     2.065763217012    97.84781269    78.19662058
 H     44   1   2     2.057866251897   120.68818192   320.16567801
 H     44   1   2     2.057849777691   109.14809968   192.00405542
 C      7   2   1     6.524715460028   110.53449604   264.54417180
 C     50   7   2     2.697346332935    53.79467730   185.75098473
 N     51  50   7     2.165797341826   179.41747899   334.79544068
 H     50   7   2     2.061911605626    65.40375009   327.54254036
 H     50   7   2     2.058380559028   153.37216683   243.21899294
 H     50   7   2     2.057665325403    96.37562292    76.27072702
 C     47  44   1     6.715076541043   103.22970294    45.36386379
 C     56  47  44     2.697702907484   144.90658525   179.91632456
 N     57  56  47     2.165613845725   179.74518491   341.82209014
 H     56  47  44     2.061567391857    35.96604026   181.11743081
 H     56  47  44     2.061239849714    89.82126975   305.45267735
 H     56  47  44     2.057148224252    89.66340616    55.29288423
 C     40  39  38     6.313101279699   154.96566955   152.70327697
 C     62  40  39     2.687262381185   110.13727084   133.18734241
 N     63  62  40     2.168308373966   179.64865389    18.41607126
 H     62  40  39     2.062024757043     1.59718188    64.84174334
 H     62  40  39     2.057975084114   107.99890194   253.08108192
 H     62  40  39     2.062236460733   110.35361305    12.44053734
 C     43  38  34     9.109534677621   173.11029583   252.48561411
 C     68  43  38     2.699885101641     3.66667584   233.98640117
 N     69  68  43     2.164690657103   179.50752344   158.81831090
 H     68  43  38     2.058188406333   112.61606937   200.81614084
 H     68  43  38     2.062741376866   106.36295570    81.02713027
 H     68  43  38     2.058231294018   109.60022777   323.09967826
 C     40  39  38     6.303980567897   114.04117154   346.04316105
 C     74  40  39     2.694861737352   105.29682877   273.58389299
 N     75  74  40     2.165664084002   179.68081875   318.65665035
 H     74  40  39     2.058390112264   106.61352618    29.96790236
 H     74  40  39     2.057906656826   115.78943994   152.22472086
 H     74  40  39     2.063916302640     6.09130032   146.07479938
 C     58  57  56     6.185923565940   134.30739816    19.90575975
 C     80  58  57     2.698774636885    99.20040206    12.78094143
 N     81  80  58     2.165298756947   179.36864314    14.23441123
 H     80  58  57     2.063673499008     9.56022229   186.81411662
 H     80  58  57     2.057652689436   115.07176500   129.64283133
 H     80  58  57     2.057846036318   113.11823786   256.73775261
 C      4   3   2     6.293888148524   119.26858854   312.35281307
 C     86   4   3     2.692972438542    99.79496781   327.02426462
 N     87  86   4     2.166814639742   178.95188241    74.42530598
 H     86   4   3     2.062028997654    11.86001158   187.28720547
 H     86   4   3     2.062378219263   106.46770053    80.52575796
 H     86   4   3     2.056809314524   121.06768520   206.71408568
 C     16  15  14     6.578352539722   100.45677186   310.47889029
 C     92  16  15     2.700111520607    72.60406036   321.73104828
 N     93  92  16     2.164873388007   179.73948826   193.09478096
 H     92  16  15     2.058018040288    93.58361533    70.96342908
 H     92  16  15     2.058142007676   153.64807211   222.84520161
 H     92  16  15     2.060950552648    48.06163807   184.35422544
 C     72  68  43     7.653786437615   129.80239006    68.90913767
 C     98  72  68     2.698890428203   102.01136218   278.96787088
 N     99  98  72     2.164838686511   179.69407925   158.98873432
 H     98  72  68     2.062963236983    32.90595224   171.82126137
 H     98  72  68     2.058124024194    82.88616146    27.43891062
 H     98  72  68     2.058290482488   138.87555876   139.18330060
 C     88  87  86     6.235647991451   132.28399408   254.28831457
 C    104  88  87     2.688947260276   103.38606505   322.17434747
 N    105 104  88     2.168492725585   179.66398521    89.74462858
 H    104  88  87     2.061198113236   110.44812673    78.82887388
 H    104  88  87     2.057392451313   114.24865529   203.02476915
 H    104  88  87     2.062468126906     5.99185356   162.17153392
 C     24  20  11     8.363541368503   159.67407839    73.26309186
 C    110  24  20     2.699057528036    23.89006986   161.09898136
 N    111 110  24     2.164498972796   179.85678398   112.34649023
 H    110  24  20     2.058982327151    97.12929271   284.35140025
 H    110  24  20     2.059010682999   133.33211548   158.99819895
 H    110  24  20     2.058979765250    96.04284672    34.96786912
 C     11   8   4     8.369259510493   153.31420726   251.46269667
 C    116  11   8     2.699721524827    20.87074814   192.18062704
 N    117 116  11     2.164412623218   179.93982362    13.02104426
 H    116  11   8     2.058816557432   121.64955037   251.28170319
 H    116  11   8     2.058937559698   115.52686495   114.50929595
 H    116  11   8     2.059189142090    88.76475183     3.48495536

---------------------
BASIS SET INFORMATION
---------------------
There are 4 groups of distinct atoms

 Group   1 Type Li  : 11s3p contracted to 5s2p pattern {62111/21}
 Group   2 Type C   : 11s6p1d contracted to 5s3p1d pattern {62111/411/1}
 Group   3 Type N   : 11s6p2d contracted to 5s3p2d pattern {62111/411/11}
 Group   4 Type H   : 4s1p contracted to 2s1p pattern {31/1}

Atom   0Li   basis set group =>   1
Atom   1C    basis set group =>   2
Atom   2C    basis set group =>   2
Atom   3N    basis set group =>   3
Atom   4H    basis set group =>   4
Atom   5H    basis set group =>   4
Atom   6H    basis set group =>   4
Atom   7C    basis set group =>   2
Atom   8C    basis set group =>   2
Atom   9N    basis set group =>   3
Atom  10H    basis set group =>   4
Atom  11H    basis set group =>   4
Atom  12H    basis set group =>   4
Atom  13C    basis set group =>   2
Atom  14C    basis set group =>   2
Atom  15N    basis set group =>   3
Atom  16H    basis set group =>   4
Atom  17H    basis set group =>   4
Atom  18H    basis set group =>   4
Atom  19C    basis set group =>   2
Atom  20C    basis set group =>   2
Atom  21N    basis set group =>   3
Atom  22H    basis set group =>   4
Atom  23H    basis set group =>   4
Atom  24H    basis set group =>   4
Atom  25C    basis set group =>   2
Atom  26C    basis set group =>   2
Atom  27N    basis set group =>   3
Atom  28H    basis set group =>   4
Atom  29H    basis set group =>   4
Atom  30H    basis set group =>   4
Atom  31C    basis set group =>   2
Atom  32C    basis set group =>   2
Atom  33N    basis set group =>   3
Atom  34H    basis set group =>   4
Atom  35H    basis set group =>   4
Atom  36H    basis set group =>   4
Atom  37C    basis set group =>   2
Atom  38C    basis set group =>   2
Atom  39N    basis set group =>   3
Atom  40H    basis set group =>   4
Atom  41H    basis set group =>   4
Atom  42H    basis set group =>   4
Atom  43C    basis set group =>   2
Atom  44C    basis set group =>   2
Atom  45N    basis set group =>   3
Atom  46H    basis set group =>   4
Atom  47H    basis set group =>   4
Atom  48H    basis set group =>   4
Atom  49C    basis set group =>   2
Atom  50C    basis set group =>   2
Atom  51N    basis set group =>   3
Atom  52H    basis set group =>   4
Atom  53H    basis set group =>   4
Atom  54H    basis set group =>   4
Atom  55C    basis set group =>   2
Atom  56C    basis set group =>   2
Atom  57N    basis set group =>   3
Atom  58H    basis set group =>   4
Atom  59H    basis set group =>   4
Atom  60H    basis set group =>   4
Atom  61C    basis set group =>   2
Atom  62C    basis set group =>   2
Atom  63N    basis set group =>   3
Atom  64H    basis set group =>   4
Atom  65H    basis set group =>   4
Atom  66H    basis set group =>   4
Atom  67C    basis set group =>   2
Atom  68C    basis set group =>   2
Atom  69N    basis set group =>   3
Atom  70H    basis set group =>   4
Atom  71H    basis set group =>   4
Atom  72H    basis set group =>   4
Atom  73C    basis set group =>   2
Atom  74C    basis set group =>   2
Atom  75N    basis set group =>   3
Atom  76H    basis set group =>   4
Atom  77H    basis set group =>   4
Atom  78H    basis set group =>   4
Atom  79C    basis set group =>   2
Atom  80C    basis set group =>   2
Atom  81N    basis set group =>   3
Atom  82H    basis set group =>   4
Atom  83H    basis set group =>   4
Atom  84H    basis set group =>   4
Atom  85C    basis set group =>   2
Atom  86C    basis set group =>   2
Atom  87N    basis set group =>   3
Atom  88H    basis set group =>   4
Atom  89H    basis set group =>   4
Atom  90H    basis set group =>   4
Atom  91C    basis set group =>   2
Atom  92C    basis set group =>   2
Atom  93N    basis set group =>   3
Atom  94H    basis set group =>   4
Atom  95H    basis set group =>   4
Atom  96H    basis set group =>   4
Atom  97C    basis set group =>   2
Atom  98C    basis set group =>   2
Atom  99N    basis set group =>   3
Atom 100H    basis set group =>   4
Atom 101H    basis set group =>   4
Atom 102H    basis set group =>   4
Atom 103C    basis set group =>   2
Atom 104C    basis set group =>   2
Atom 105N    basis set group =>   3
Atom 106H    basis set group =>   4
Atom 107H    basis set group =>   4
Atom 108H    basis set group =>   4
Atom 109C    basis set group =>   2
Atom 110C    basis set group =>   2
Atom 111N    basis set group =>   3
Atom 112H    basis set group =>   4
Atom 113H    basis set group =>   4
Atom 114H    basis set group =>   4
Atom 115C    basis set group =>   2
Atom 116C    basis set group =>   2
Atom 117N    basis set group =>   3
Atom 118H    basis set group =>   4
Atom 119H    basis set group =>   4
Atom 120H    basis set group =>   4
---------------------------------
AUXILIARY/J BASIS SET INFORMATION
---------------------------------
There are 4 groups of distinct atoms

 Group   1 Type Li  : 12s5p4d2f1g contracted to 6s4p3d1f1g pattern {711111/2111/211/2/1}
 Group   2 Type C   : 12s5p4d2f1g contracted to 6s4p3d1f1g pattern {711111/2111/211/2/1}
 Group   3 Type N   : 12s5p4d2f1g contracted to 6s4p3d1f1g pattern {711111/2111/211/2/1}
 Group   4 Type H   : 5s2p1d contracted to 3s1p1d pattern {311/2/1}

Atom   0Li   basis set group =>   1
Atom   1C    basis set group =>   2
Atom   2C    basis set group =>   2
Atom   3N    basis set group =>   3
Atom   4H    basis set group =>   4
Atom   5H    basis set group =>   4
Atom   6H    basis set group =>   4
Atom   7C    basis set group =>   2
Atom   8C    basis set group =>   2
Atom   9N    basis set group =>   3
Atom  10H    basis set group =>   4
Atom  11H    basis set group =>   4
Atom  12H    basis set group =>   4
Atom  13C    basis set group =>   2
Atom  14C    basis set group =>   2
Atom  15N    basis set group =>   3
Atom  16H    basis set group =>   4
Atom  17H    basis set group =>   4
Atom  18H    basis set group =>   4
Atom  19C    basis set group =>   2
Atom  20C    basis set group =>   2
Atom  21N    basis set group =>   3
Atom  22H    basis set group =>   4
Atom  23H    basis set group =>   4
Atom  24H    basis set group =>   4
Atom  25C    basis set group =>   2
Atom  26C    basis set group =>   2
Atom  27N    basis set group =>   3
Atom  28H    basis set group =>   4
Atom  29H    basis set group =>   4
Atom  30H    basis set group =>   4
Atom  31C    basis set group =>   2
Atom  32C    basis set group =>   2
Atom  33N    basis set group =>   3
Atom  34H    basis set group =>   4
Atom  35H    basis set group =>   4
Atom  36H    basis set group =>   4
Atom  37C    basis set group =>   2
Atom  38C    basis set group =>   2
Atom  39N    basis set group =>   3
Atom  40H    basis set group =>   4
Atom  41H    basis set group =>   4
Atom  42H    basis set group =>   4
Atom  43C    basis set group =>   2
Atom  44C    basis set group =>   2
Atom  45N    basis set group =>   3
Atom  46H    basis set group =>   4
Atom  47H    basis set group =>   4
Atom  48H    basis set group =>   4
Atom  49C    basis set group =>   2
Atom  50C    basis set group =>   2
Atom  51N    basis set group =>   3
Atom  52H    basis set group =>   4
Atom  53H    basis set group =>   4
Atom  54H    basis set group =>   4
Atom  55C    basis set group =>   2
Atom  56C    basis set group =>   2
Atom  57N    basis set group =>   3
Atom  58H    basis set group =>   4
Atom  59H    basis set group =>   4
Atom  60H    basis set group =>   4
Atom  61C    basis set group =>   2
Atom  62C    basis set group =>   2
Atom  63N    basis set group =>   3
Atom  64H    basis set group =>   4
Atom  65H    basis set group =>   4
Atom  66H    basis set group =>   4
Atom  67C    basis set group =>   2
Atom  68C    basis set group =>   2
Atom  69N    basis set group =>   3
Atom  70H    basis set group =>   4
Atom  71H    basis set group =>   4
Atom  72H    basis set group =>   4
Atom  73C    basis set group =>   2
Atom  74C    basis set group =>   2
Atom  75N    basis set group =>   3
Atom  76H    basis set group =>   4
Atom  77H    basis set group =>   4
Atom  78H    basis set group =>   4
Atom  79C    basis set group =>   2
Atom  80C    basis set group =>   2
Atom  81N    basis set group =>   3
Atom  82H    basis set group =>   4
Atom  83H    basis set group =>   4
Atom  84H    basis set group =>   4
Atom  85C    basis set group =>   2
Atom  86C    basis set group =>   2
Atom  87N    basis set group =>   3
Atom  88H    basis set group =>   4
Atom  89H    basis set group =>   4
Atom  90H    basis set group =>   4
Atom  91C    basis set group =>   2
Atom  92C    basis set group =>   2
Atom  93N    basis set group =>   3
Atom  94H    basis set group =>   4
Atom  95H    basis set group =>   4
Atom  96H    basis set group =>   4
Atom  97C    basis set group =>   2
Atom  98C    basis set group =>   2
Atom  99N    basis set group =>   3
Atom 100H    basis set group =>   4
Atom 101H    basis set group =>   4
Atom 102H    basis set group =>   4
Atom 103C    basis set group =>   2
Atom 104C    basis set group =>   2
Atom 105N    basis set group =>   3
Atom 106H    basis set group =>   4
Atom 107H    basis set group =>   4
Atom 108H    basis set group =>   4
Atom 109C    basis set group =>   2
Atom 110C    basis set group =>   2
Atom 111N    basis set group =>   3
Atom 112H    basis set group =>   4
Atom 113H    basis set group =>   4
Atom 114H    basis set group =>   4
Atom 115C    basis set group =>   2
Atom 116C    basis set group =>   2
Atom 117N    basis set group =>   3
Atom 118H    basis set group =>   4
Atom 119H    basis set group =>   4
Atom 120H    basis set group =>   4


           ************************************************************
           *        Program running with 8 parallel MPI-processes     *
           *              working on a common directory               *
           ************************************************************
------------------------------------------------------------------------------
                           ORCA GTO INTEGRAL CALCULATION
                           -- RI-GTO INTEGRALS CHOSEN --
------------------------------------------------------------------------------
------------------------------------------------------------------------------
                   ___                                                        
                  /   \      - P O W E R E D   B Y -                         
                 /     \                                                     
                 |  |  |   _    _      __       _____    __    __             
                 |  |  |  | |  | |    /  \     |  _  \  |  |  /  |          
                  \  \/   | |  | |   /    \    | | | |  |  | /  /          
                 / \  \   | |__| |  /  /\  \   | |_| |  |  |/  /          
                |  |  |   |  __  | /  /__\  \  |    /   |      \           
                |  |  |   | |  | | |   __   |  |    \   |  |\   \          
                \     /   | |  | | |  |  |  |  | |\  \  |  | \   \       
                 \___/    |_|  |_| |__|  |__|  |_| \__\ |__|  \__/        
                                                                              
                      - O R C A' S   B I G   F R I E N D -                    
                                      &                                       
                       - I N T E G R A L  F E E D E R -                       
                                                                              
 v1 FN, 2020, v2 2021                                                         
------------------------------------------------------------------------------


Reading SHARK input file ORCA.SHARKINP.tmp ... ok
----------------------
SHARK INTEGRAL PACKAGE
----------------------

Number of atoms                             ...    121
Number of basis functions                   ...   1551
Number of shells                            ...    747
Maximum angular momentum                    ...      2
Integral batch strategy                     ... SHARK/LIBINT Hybrid
RI-J (if used) integral strategy            ... SPLIT-RIJ (Revised 2003 algorithm where possible)
Printlevel                                  ...      1
Contraction scheme used                     ... SEGMENTED contraction
Coulomb Range Separation                    ... NOT USED
Exchange Range Separation                   ... NOT USED
Finite Nucleus Model                        ... NOT USED
Auxiliary Coulomb fitting basis             ... AVAILABLE
   # of basis functions in Aux-J            ...   3649
   # of shells in Aux-J                     ...   1215
   Maximum angular momentum in Aux-J        ...      4
Auxiliary J/K fitting basis                 ... NOT available
Auxiliary Correlation fitting basis         ... NOT available
Auxiliary 'external' fitting basis          ... NOT available
Integral threshold                          ...     2.500000e-11
Primitive cut-off                           ...     2.500000e-12
Primitive pair pre-selection threshold      ...     2.500000e-12

Calculating pre-screening integrals         ... done (  0.1 sec) Dimension = 747
Organizing shell pair data                  ... done (  0.7 sec)
Shell pair information
Total number of shell pairs                 ...    279378
Shell pairs after pre-screening             ...    100786
Total number of primitive shell pairs       ...   1001922
Primitive shell pairs kept                  ...    194027
          la=0 lb=0:  30617 shell pairs
          la=1 lb=0:  38723 shell pairs
          la=1 lb=1:  12397 shell pairs
          la=2 lb=0:  10938 shell pairs
          la=2 lb=1:   7102 shell pairs
          la=2 lb=2:   1009 shell pairs

Calculating one electron integrals          ... done (  0.3 sec)
Calculating RI/J V-Matrix + Cholesky decomp.... done (  0.7 sec)
Calculating Nuclear repulsion               ... done (  0.0 sec) ENN=   7967.039323564683 Eh

SHARK setup successfully completed in   2.5 seconds

Maximum memory used throughout the entire GTOINT-calculation: 165.5 MB


           ************************************************************
           *        Program running with 8 parallel MPI-processes     *
           *              working on a common directory               *
           ************************************************************
-------------------------------------------------------------------------------
                                 ORCA SCF
-------------------------------------------------------------------------------

------------
SCF SETTINGS
------------
Hamiltonian:
 Density Functional     Method          .... DFT(GTOs)
  Functional kind                       .... Exchange
  Functional name                       .... Re-regularized SCAN exchange by Furness et al
  Functional family                     .... MGGA
  Functional refs                              
    [ 0] J. W. Furness, A. D. Kaplan, J. Ning, J. P. Perdew, and J. Sun, J. Phys. Chem. Lett. 11, 8208 (2020)
    [ 1] J. W. Furness, A. D. Kaplan, J. Ning, J. P. Perdew, and J. Sun, J. Phys. Chem. Lett. 11, 9248 (2020)
  Functional external parameters         .... 8
 Parameter  0 :         c1 parameter
 Parameter  1 :         c2 parameter
 Parameter  2 :          d parameter
 Parameter  3 :         k1 parameter
 Parameter  4 :       taur parameter
 Parameter  5 :     alphar parameter
 Parameter  6 :        eta parameter
 Parameter  7 :        dp2 parameter
  Functional kind                       .... Correlation
  Functional name                       .... Re-regularized SCAN correlation by Furness et al
  Functional family                     .... MGGA
  Functional refs                              
    [ 0] J. W. Furness, A. D. Kaplan, J. Ning, J. P. Perdew, and J. Sun, J. Phys. Chem. Lett. 11, 8208 (2020)
    [ 1] J. W. Furness, A. D. Kaplan, J. Ning, J. P. Perdew, and J. Sun, J. Phys. Chem. Lett. 11, 9248 (2020)
  Functional external parameters         .... 0
 Gradients option       PostSCFGGA      .... off
   Density functional embedding theory  .... OFF
 RI-approximation to the Coulomb term is turned on
   Number of AuxJ basis functions       .... 3649


General Settings:
 Integral files         IntName         .... ORCA
 Hartree-Fock type      HFTyp           .... RHF
 Total Charge           Charge          ....    1
 Multiplicity           Mult            ....    1
 Number of Electrons    NEL             ....  442
 Basis Dimension        Dim             .... 1551
 Nuclear Repulsion      ENuc            ....   7967.0393235647 Eh

Convergence Acceleration:
 DIIS                   CNVDIIS         .... on
   Start iteration      DIISMaxIt       ....    12
   Startup error        DIISStart       ....  0.200000
   # of expansion vecs  DIISMaxEq       ....     5
   Bias factor          DIISBfac        ....   1.050
   Max. coefficient     DIISMaxC        ....  10.000
 Trust-Rad. Augm. Hess. CNVTRAH         .... auto
   Auto Start mean grad. ratio tolernc. ....  1.125000
   Auto Start start iteration           ....    20
   Auto Start num. interpolation iter.  ....    10
   Max. Number of Micro iterations      ....    16
   Max. Number of Macro iterations      .... Maxiter - #DIIS iter
   Number of Davidson start vectors     ....     2
   Converg. threshold I  (grad. norm)   ....   1.000e-05
   Converg. threshold II (energy diff.) ....   1.000e-08
   Grad. Scal. Fac. for Micro threshold ....   0.100
   Minimum threshold for Micro iter.    ....   0.010
   NR start threshold (gradient norm)   ....   0.001
   Initial trust radius                 ....   0.400
   Minimum AH scaling param. (alpha)    ....   1.000
   Maximum AH scaling param. (alpha)    .... 1000.000
   Orbital update algorithm             .... Taylor
   White noise on init. David. guess    .... on
   Maximum white noise                  ....   0.010
   Quad. conv. algorithm                .... NR
   COSX micro iterations for RIJONX calc.... off
 SOSCF                  CNVSOSCF        .... on
   Start iteration      SOSCFMaxIt      ....   150
   Startup grad/error   SOSCFStart      ....  0.003300
 Level Shifting         CNVShift        .... on
   Level shift para.    LevelShift      ....    0.2500
   Turn off err/grad.   ShiftErr        ....    0.0010
 Zerner damping         CNVZerner       .... off
 Static damping         CNVDamp         .... on
   Fraction old density DampFac         ....    0.7000
   Max. Damping (<1)    DampMax         ....    0.9800
   Min. Damping (>=0)   DampMin         ....    0.0000
   Turn off err/grad.   DampErr         ....    0.1000
 Fernandez-Rico         CNVRico         .... off

SCF Procedure:
 Maximum # iterations   MaxIter         ....   125
 SCF integral mode      SCFMode         .... Direct
   Integral package                     .... SHARK and LIBINT hybrid scheme
 Reset frequency        DirectResetFreq ....    20
 Integral Threshold     Thresh          ....  2.500e-11 Eh
 Primitive CutOff       TCut            ....  2.500e-12 Eh

Convergence Tolerance:
 Convergence Check Mode ConvCheckMode   .... Total+1el-Energy
 Convergence forced     ConvForced      .... 0
 Energy Change          TolE            ....  1.000e-08 Eh
 1-El. energy change                    ....  1.000e-05 Eh
 Orbital Gradient       TolG            ....  1.000e-05
 Orbital Rotation angle TolX            ....  1.000e-05
 DIIS Error             TolErr          ....  5.000e-07


Diagonalization of the overlap matrix:
Smallest eigenvalue                        ... 1.077e-04
Time for diagonalization                   ...    0.374 sec
Threshold for overlap eigenvalues          ... 1.000e-08
Number of eigenvalues below threshold      ... 0
Time for construction of square roots      ...    0.287 sec
Total time needed                          ...    0.671 sec

Time for model grid setup =    2.205 sec

------------------------------
INITIAL GUESS: MODEL POTENTIAL
------------------------------
Loading Hartree-Fock densities                     ... done
Calculating cut-offs                               ... done
Initializing the effective Hamiltonian             ... done
Setting up the integral package (SHARK)            ... done
Starting the Coulomb interaction                   ... done (   3.2 sec)
Reading the grid                                   ... done
Mapping shells                                     ... done
Starting the XC term evaluation                    ... done (   0.7 sec)
  promolecular density results
     # of electrons  =    442.972583983
     EX              =   -353.557614309
     EC              =    -14.102291182
     EX+EC           =   -367.659905491
Transforming the Hamiltonian                       ... done (   0.2 sec)
Diagonalizing the Hamiltonian                      ... done (   0.5 sec)
Back transforming the eigenvectors                 ... done (   0.1 sec)
Now organizing SCF variables                       ... done
                      ------------------
                      INITIAL GUESS DONE (   7.0 sec)
                      ------------------
-------------------
DFT GRID GENERATION
-------------------

General Integration Accuracy     IntAcc      ... 4.959
Radial Grid Type                 RadialGrid  ... OptM3 with GC (2021)
Angular Grid (max. ang.)         AngularGrid ... 6 (Lebedev-590)
Angular grid pruning method      GridPruning ... 4 (adaptive)
Weight generation scheme         WeightScheme... Becke
Basis function cutoff            BFCut       ... 1.0000e-11
Integration weight cutoff        WCut        ... 1.0000e-14
Angular grids for H and He will be reduced by one unit
Partially contracted basis set               ... off
Rotationally invariant grid construction     ... off

Total number of grid points                  ...  1378783
Total number of batches                      ...    21605
Average number of points per batch           ...       63
Average number of grid points per atom       ...    11395
Time for grid setup =   25.759 sec


--------------------
CPCM SOLVATION MODEL
--------------------
CPCM parameters:
  Epsilon                                         ...      35.6880
  Refrac                                          ...       1.3442
  Rsolv                                           ...       1.3000
  Surface type                                    ... GAUSSIAN VDW
  Epsilon function type                           ...         CPCM
Solvent:                                     ... MECN
SMD-CDS solvent descriptors:
  Soln                                       ...    1.3442
  Soln25                                     ...    1.3416
  Sola                                       ...    0.0700
  Solb                                       ...    0.3200
  Solg                                       ...   41.2500
  Solc                                       ...    0.0000
  Solh                                       ...    0.0000
Radii:
 Radius for Li used is    3.4393 Bohr (=   1.8200 Ang.)
 Radius for C  used is    3.4960 Bohr (=   1.8500 Ang.)
 Radius for N  used is    3.5716 Bohr (=   1.8900 Ang.)
 Radius for H  used is    2.2677 Bohr (=   1.2000 Ang.)
Calculating surface                               ...        done! (  0.0s)
GEPOL surface points                              ...         8086
GEPOL Volume                                      ...    7441.5252
GEPOL Surface-area                                ...    4631.7537
Calculating surface distance matrix               ...        done! (  1.1s)
Performing Cholesky decomposition & store         ...        done! (  5.0s)
Overall time for CPCM initialization              ...                 6.1s
--------------
SCF ITERATIONS
--------------
ITER       Energy         Delta-E        Max-DP      RMS-DP      [F,P]     Damp
               ***  Starting incremental Fock matrix formation  ***
  0  -2659.9625921139   0.000000000000 0.05015993  0.00051244  0.2667517 0.7000
  1  -2661.0006326801  -1.038040566181 0.02854857  0.00035523  0.0994393 0.7000
                               ***Turning on DIIS***
  2  -2661.3437462217  -0.343113541596 0.03627441  0.00058418  0.0404890 0.0000
  3  -2661.9496396713  -0.605893449600 0.02088544  0.00029410  0.0456638 0.0000
  4  -2662.0576372510  -0.107997579759 0.00926589  0.00011165  0.0310381 0.0000
  5  -2662.0795707435  -0.021933492502 0.00291720  0.00003402  0.0058040 0.0000
                      *** Initiating the SOSCF procedure ***
                           *** Shutting down DIIS ***
                      *** Re-Reading the Fockian *** 
                      *** Removing any level shift *** 
ITER      Energy       Delta-E        Grad      Rot      Max-DP    RMS-DP
  6  -2662.08044802  -0.0008772786  0.000389  0.000389  0.000852  0.000010
               *** Restarting incremental Fock matrix formation ***
  7  -2662.08050744  -0.0000594161  0.000239  0.000783  0.000876  0.000007
  8  -2662.08046756   0.0000398753  0.000750  0.000680  0.000651  0.000004
  9  -2662.08051650  -0.0000489340  0.000043  0.000083  0.000120  0.000002
 10  -2662.08051603   0.0000004656  0.000048  0.000049  0.000075  0.000001
 11  -2662.08051716  -0.0000011238  0.000014  0.000038  0.000054  0.000000
 12  -2662.08051682   0.0000003384  0.000031  0.000026  0.000036  0.000000
                  ***Gradient check signals convergence***
              ***Rediagonalizing the Fockian in SOSCF/NRSCF***

               *****************************************************
               *                     SUCCESS                       *
               *           SCF CONVERGED AFTER  13 CYCLES          *
               *****************************************************


SMD CDS free energy correction energy :                12.28810     Kcal/mol
Total Energy after SMD CDS correction =             -2662.060934753 Eh

----------------
TOTAL SCF ENERGY
----------------

Total Energy       :        -2662.06093475 Eh          -72438.36073 eV

Components:
Nuclear Repulsion  :         7967.03932356 Eh          216794.16160 eV
Electronic Energy  :       -10629.10025832 Eh         -289232.52233 eV
One Electron Energy:       -19452.34833431 Eh         -529325.30856 eV
Two Electron Energy:         8823.24807600 Eh          240092.78623 eV
CPCM Dielectric    :           -0.15632337 Eh              -4.25378 eV
SMD CDS (Gcds)     :            0.01958233 Eh               0.53286 eV

Virial components:
Potential Energy   :        -5314.07444856 Eh         -144603.31724 eV
Kinetic Energy     :         2652.01351381 Eh           72164.95651 eV
Virial Ratio       :            2.00378860


DFT components:
N(Alpha)           :      221.000066774133 electrons
N(Beta)            :      221.000066774133 electrons
N(Total)           :      442.000133548265 electrons
E(X)               :     -363.224642788843 Eh       
E(C)               :      -13.871857630464 Eh       
E(XC)              :     -377.096500419307 Eh       
DFET-embed. en.    :        0.000000000000 Eh       
CPCM Solvation Model Properties:
Surface-charge          :           -1.06867479
Charge-correction       :            0.00396863 Eh               0.10799 eV
Free-energy (cav+disp)  :            0.01958233 Eh               0.53286 eV

---------------
SCF CONVERGENCE
---------------

  Last Energy change         ...   -2.6158e-07  Tolerance :   1.0000e-08
  Last MAX-Density change    ...    1.3421e-05  Tolerance :   1.0000e-07
  Last RMS-Density change    ...    9.9523e-08  Tolerance :   5.0000e-09
  Last Orbital Gradient      ...    9.0409e-07  Tolerance :   1.0000e-05
  Last Orbital Rotation      ...    1.3973e-06  Tolerance :   1.0000e-05

             **** THE GBW FILE WAS UPDATED (ORCA.gbw) ****
             **** DENSITY ORCA.scfp WAS UPDATED ****
             **** ENERGY FILE WAS UPDATED (ORCA.en.tmp) ****
             **** THE GBW FILE WAS UPDATED (ORCA.gbw) ****
             **** DENSITY ORCA.scfp WAS UPDATED ****
----------------
ORBITAL ENERGIES
----------------

  NO   OCC          E(Eh)            E(eV) 
   0   2.0000     -14.171261      -385.6196 
   1   2.0000     -14.170638      -385.6027 
   2   2.0000     -14.170637      -385.6026 
   3   2.0000     -14.169058      -385.5597 
   4   2.0000     -14.160894      -385.3375 
   5   2.0000     -14.160745      -385.3334 
   6   2.0000     -14.159006      -385.2861 
   7   2.0000     -14.158414      -385.2700 
   8   2.0000     -14.158128      -385.2622 
   9   2.0000     -14.157956      -385.2576 
  10   2.0000     -14.157749      -385.2519 
  11   2.0000     -14.157691      -385.2504 
  12   2.0000     -14.157442      -385.2436 
  13   2.0000     -14.156968      -385.2307 
  14   2.0000     -14.156935      -385.2298 
  15   2.0000     -14.156865      -385.2279 
  16   2.0000     -14.156844      -385.2273 
  17   2.0000     -14.156815      -385.2265 
  18   2.0000     -14.156618      -385.2212 
  19   2.0000     -14.156003      -385.2044 
  20   2.0000     -10.098735      -274.8006 
  21   2.0000     -10.097776      -274.7744 
  22   2.0000     -10.097722      -274.7730 
  23   2.0000     -10.096299      -274.7343 
  24   2.0000     -10.085540      -274.4415 
  25   2.0000     -10.085307      -274.4351 
  26   2.0000     -10.083618      -274.3892 
  27   2.0000     -10.082877      -274.3690 
  28   2.0000     -10.082494      -274.3586 
  29   2.0000     -10.082270      -274.3525 
  30   2.0000     -10.082081      -274.3474 
  31   2.0000     -10.081832      -274.3406 
  32   2.0000     -10.081626      -274.3350 
  33   2.0000     -10.081595      -274.3341 
  34   2.0000     -10.081466      -274.3306 
  35   2.0000     -10.081146      -274.3219 
  36   2.0000     -10.081030      -274.3188 
  37   2.0000     -10.080977      -274.3173 
  38   2.0000     -10.080879      -274.3147 
  39   2.0000     -10.079961      -274.2897 
  40   2.0000     -10.062954      -273.8269 
  41   2.0000     -10.062886      -273.8251 
  42   2.0000     -10.061607      -273.7902 
  43   2.0000     -10.059262      -273.7264 
  44   2.0000     -10.058513      -273.7061 
  45   2.0000     -10.058426      -273.7037 
  46   2.0000     -10.057943      -273.6905 
  47   2.0000     -10.057916      -273.6898 
  48   2.0000     -10.057912      -273.6897 
  49   2.0000     -10.056869      -273.6613 
  50   2.0000     -10.056711      -273.6570 
  51   2.0000     -10.055891      -273.6347 
  52   2.0000     -10.055724      -273.6302 
  53   2.0000     -10.055617      -273.6272 
  54   2.0000     -10.054181      -273.5882 
  55   2.0000     -10.053065      -273.5578 
  56   2.0000     -10.053042      -273.5572 
  57   2.0000     -10.050085      -273.4767 
  58   2.0000     -10.049846      -273.4702 
  59   2.0000     -10.049280      -273.4548 
  60   2.0000      -1.853038       -50.4237 
  61   2.0000      -0.900106       -24.4931 
  62   2.0000      -0.899447       -24.4752 
  63   2.0000      -0.898696       -24.4548 
  64   2.0000      -0.897032       -24.4095 
  65   2.0000      -0.888569       -24.1792 
  66   2.0000      -0.888363       -24.1736 
  67   2.0000      -0.886600       -24.1256 
  68   2.0000      -0.885654       -24.0999 
  69   2.0000      -0.885476       -24.0950 
  70   2.0000      -0.885421       -24.0935 
  71   2.0000      -0.884977       -24.0814 
  72   2.0000      -0.884797       -24.0766 
  73   2.0000      -0.884670       -24.0731 
  74   2.0000      -0.884500       -24.0685 
  75   2.0000      -0.884239       -24.0614 
  76   2.0000      -0.884061       -24.0565 
  77   2.0000      -0.883970       -24.0541 
  78   2.0000      -0.883932       -24.0530 
  79   2.0000      -0.883706       -24.0469 
  80   2.0000      -0.883074       -24.0297 
  81   2.0000      -0.741596       -20.1799 
  82   2.0000      -0.741239       -20.1701 
  83   2.0000      -0.741076       -20.1657 
  84   2.0000      -0.740155       -20.1407 
  85   2.0000      -0.737960       -20.0809 
  86   2.0000      -0.737821       -20.0771 
  87   2.0000      -0.736306       -20.0359 
  88   2.0000      -0.736282       -20.0352 
  89   2.0000      -0.735151       -20.0045 
  90   2.0000      -0.735054       -20.0018 
  91   2.0000      -0.734100       -19.9759 
  92   2.0000      -0.733552       -19.9610 
  93   2.0000      -0.733451       -19.9582 
  94   2.0000      -0.733385       -19.9564 
  95   2.0000      -0.733282       -19.9536 
  96   2.0000      -0.732315       -19.9273 
  97   2.0000      -0.732072       -19.9207 
  98   2.0000      -0.731602       -19.9079 
  99   2.0000      -0.730789       -19.8858 
 100   2.0000      -0.730483       -19.8775 
 101   2.0000      -0.481819       -13.1110 
 102   2.0000      -0.479961       -13.0604 
 103   2.0000      -0.479385       -13.0447 
 104   2.0000      -0.478611       -13.0237 
 105   2.0000      -0.476784       -12.9739 
 106   2.0000      -0.475656       -12.9433 
 107   2.0000      -0.475455       -12.9378 
 108   2.0000      -0.474804       -12.9201 
 109   2.0000      -0.474560       -12.9134 
 110   2.0000      -0.473132       -12.8746 
 111   2.0000      -0.472875       -12.8676 
 112   2.0000      -0.472475       -12.8567 
 113   2.0000      -0.472414       -12.8550 
 114   2.0000      -0.470799       -12.8111 
 115   2.0000      -0.470016       -12.7898 
 116   2.0000      -0.469484       -12.7753 
 117   2.0000      -0.468946       -12.7607 
 118   2.0000      -0.468321       -12.7437 
 119   2.0000      -0.466314       -12.6890 
 120   2.0000      -0.465651       -12.6710 
 121   2.0000      -0.433952       -11.8084 
 122   2.0000      -0.432918       -11.7803 
 123   2.0000      -0.431057       -11.7297 
 124   2.0000      -0.430402       -11.7118 
 125   2.0000      -0.429376       -11.6839 
 126   2.0000      -0.428170       -11.6511 
 127   2.0000      -0.426471       -11.6049 
 128   2.0000      -0.425232       -11.5712 
 129   2.0000      -0.424543       -11.5524 
 130   2.0000      -0.424494       -11.5511 
 131   2.0000      -0.423951       -11.5363 
 132   2.0000      -0.423489       -11.5237 
 133   2.0000      -0.422868       -11.5068 
 134   2.0000      -0.422647       -11.5008 
 135   2.0000      -0.422342       -11.4925 
 136   2.0000      -0.421930       -11.4813 
 137   2.0000      -0.421675       -11.4744 
 138   2.0000      -0.421068       -11.4578 
 139   2.0000      -0.421007       -11.4562 
 140   2.0000      -0.420794       -11.4504 
 141   2.0000      -0.420475       -11.4417 
 142   2.0000      -0.420038       -11.4298 
 143   2.0000      -0.419143       -11.4055 
 144   2.0000      -0.418911       -11.3992 
 145   2.0000      -0.418686       -11.3930 
 146   2.0000      -0.418545       -11.3892 
 147   2.0000      -0.418056       -11.3759 
 148   2.0000      -0.417976       -11.3737 
 149   2.0000      -0.417847       -11.3702 
 150   2.0000      -0.417568       -11.3626 
 151   2.0000      -0.417124       -11.3505 
 152   2.0000      -0.416989       -11.3468 
 153   2.0000      -0.416634       -11.3372 
 154   2.0000      -0.416547       -11.3348 
 155   2.0000      -0.415641       -11.3102 
 156   2.0000      -0.415328       -11.3016 
 157   2.0000      -0.414792       -11.2871 
 158   2.0000      -0.414171       -11.2702 
 159   2.0000      -0.413110       -11.2413 
 160   2.0000      -0.411981       -11.2106 
 161   2.0000      -0.390590       -10.6285 
 162   2.0000      -0.375147       -10.2083 
 163   2.0000      -0.374507       -10.1909 
 164   2.0000      -0.371763       -10.1162 
 165   2.0000      -0.351022        -9.5518 
 166   2.0000      -0.350484        -9.5372 
 167   2.0000      -0.349779        -9.5180 
 168   2.0000      -0.349485        -9.5100 
 169   2.0000      -0.348822        -9.4919 
 170   2.0000      -0.347827        -9.4649 
 171   2.0000      -0.347180        -9.4472 
 172   2.0000      -0.346592        -9.4312 
 173   2.0000      -0.346109        -9.4181 
 174   2.0000      -0.345307        -9.3963 
 175   2.0000      -0.344430        -9.3724 
 176   2.0000      -0.344101        -9.3635 
 177   2.0000      -0.343628        -9.3506 
 178   2.0000      -0.342955        -9.3323 
 179   2.0000      -0.342620        -9.3232 
 180   2.0000      -0.340962        -9.2781 
 181   2.0000      -0.327925        -8.9233 
 182   2.0000      -0.324677        -8.8349 
 183   2.0000      -0.322783        -8.7834 
 184   2.0000      -0.322699        -8.7811 
 185   2.0000      -0.320541        -8.7224 
 186   2.0000      -0.318015        -8.6536 
 187   2.0000      -0.317083        -8.6283 
 188   2.0000      -0.316755        -8.6193 
 189   2.0000      -0.314846        -8.5674 
 190   2.0000      -0.314133        -8.5480 
 191   2.0000      -0.313946        -8.5429 
 192   2.0000      -0.313767        -8.5380 
 193   2.0000      -0.313338        -8.5264 
 194   2.0000      -0.312865        -8.5135 
 195   2.0000      -0.312168        -8.4945 
 196   2.0000      -0.311599        -8.4791 
 197   2.0000      -0.310938        -8.4610 
 198   2.0000      -0.310611        -8.4522 
 199   2.0000      -0.310267        -8.4428 
 200   2.0000      -0.310055        -8.4370 
 201   2.0000      -0.309931        -8.4337 
 202   2.0000      -0.309702        -8.4274 
 203   2.0000      -0.309359        -8.4181 
 204   2.0000      -0.309170        -8.4129 
 205   2.0000      -0.309054        -8.4098 
 206   2.0000      -0.308830        -8.4037 
 207   2.0000      -0.308465        -8.3938 
 208   2.0000      -0.308176        -8.3859 
 209   2.0000      -0.307347        -8.3633 
 210   2.0000      -0.307130        -8.3574 
 211   2.0000      -0.304976        -8.2988 
 212   2.0000      -0.304460        -8.2848 
 213   2.0000      -0.304152        -8.2764 
 214   2.0000      -0.303839        -8.2679 
 215   2.0000      -0.302459        -8.2303 
 216   2.0000      -0.301155        -8.1948 
 217   2.0000      -0.298865        -8.1325 
 218   2.0000      -0.297542        -8.0965 
 219   2.0000      -0.296378        -8.0649 
 220   2.0000      -0.295412        -8.0386 
 221   0.0000      -0.023897        -0.6503 
 222   0.0000      -0.019373        -0.5272 
 223   0.0000      -0.016424        -0.4469 
 224   0.0000      -0.014401        -0.3919 
 225   0.0000      -0.011413        -0.3106 
[...]
106 H s       :     0.731890  s :     0.731890
      pz      :     0.031338  p :     0.051573
      px      :     0.013227
      py      :     0.007008
107 H s       :     0.755203  s :     0.755203
      pz      :     0.008705  p :     0.045175
      px      :     0.013656
      py      :     0.022815
108 H s       :     0.733240  s :     0.733240
      pz      :     0.022891  p :     0.051193
      px      :     0.021382
      py      :     0.006919
109 C s       :     2.946639  s :     2.946639
      pz      :     1.059902  p :     3.340561
      px      :     1.119270
      py      :     1.161389
      dz2     :     0.015956  d :     0.062765
      dxz     :     0.021127
      dyz     :     0.005286
      dx2y2   :     0.005801
      dxy     :     0.014595
110 C s       :     2.875602  s :     2.875602
      pz      :     1.079146  p :     2.845739
      px      :     0.934326
      py      :     0.832267
      dz2     :     0.033359  d :     0.106428
      dxz     :     0.029331
      dyz     :     0.023771
      dx2y2   :     0.009086
      dxy     :     0.010881
111 N s       :     3.412549  s :     3.412549
      pz      :     1.399525  p :     3.811354
      px      :     1.255679
      py      :     1.156150
      dz2     :     0.064377  d :     0.202196
      dxz     :     0.063559
      dyz     :     0.038117
      dx2y2   :     0.014942
      dxy     :     0.021202
112 H s       :     0.753153  s :     0.753153
      pz      :     0.007381  p :     0.044822
      px      :     0.012492
      py      :     0.024949
113 H s       :     0.753061  s :     0.753061
      pz      :     0.006950  p :     0.044832
      px      :     0.017898
      py      :     0.019984
114 H s       :     0.753131  s :     0.753131
      pz      :     0.020546  p :     0.044828
      px      :     0.015513
      py      :     0.008769
115 C s       :     2.946729  s :     2.946729
      pz      :     1.075351  p :     3.340563
      px      :     1.161244
      py      :     1.103968
      dz2     :     0.013763  d :     0.062748
      dxz     :     0.007231
      dyz     :     0.020423
      dx2y2   :     0.011107
      dxy     :     0.010225
116 C s       :     2.875967  s :     2.875967
      pz      :     1.041196  p :     2.845816
      px      :     0.833419
      py      :     0.971201
      dz2     :     0.030975  d :     0.106352
      dxz     :     0.020399
      dyz     :     0.028172
      dx2y2   :     0.012892
      dxy     :     0.013914
117 N s       :     3.412625  s :     3.412625
      pz      :     1.362609  p :     3.811315
      px      :     1.156519
      py      :     1.292187
      dz2     :     0.051256  d :     0.201545
      dxz     :     0.036622
      dyz     :     0.066908
      dx2y2   :     0.027339
      dxy     :     0.019419
118 H s       :     0.753183  s :     0.753183
      pz      :     0.007529  p :     0.044829
      px      :     0.028769
      py      :     0.008531
119 H s       :     0.753155  s :     0.753155
      pz      :     0.022390  p :     0.044825
      px      :     0.011043
      py      :     0.011392
120 H s       :     0.753266  s :     0.753266
      pz      :     0.007827  p :     0.044819
      px      :     0.013867
      py      :     0.023125


                      *****************************
                      * MAYER POPULATION ANALYSIS *
                      *****************************

  NA   - Mulliken gross atomic population
  ZA   - Total nuclear charge
  QA   - Mulliken gross atomic charge
  VA   - Mayer's total valence
  BVA  - Mayer's bonded valence
  FA   - Mayer's free valence

  ATOM       NA         ZA         QA         VA         BVA        FA
  0 Li     2.1277     3.0000     0.8723     0.2839     0.2839     0.0000
  1 C      6.5994     6.0000    -0.5994     3.8191     3.8191     0.0000
  2 C      5.6473     6.0000     0.3527     3.6994     3.6994     0.0000
  3 N      7.4010     7.0000    -0.4010     2.8597     2.8597     0.0000
  4 H      0.7826     1.0000     0.2174     0.9415     0.9415     0.0000
  5 H      0.7787     1.0000     0.2213     0.9414     0.9414     0.0000
  6 H      0.7868     1.0000     0.2132     0.9422     0.9422     0.0000
  7 C      6.6583     6.0000    -0.6583     3.7568     3.7568    -0.0000
  8 C      5.5798     6.0000     0.4202     3.5380     3.5380    -0.0000
  9 N      7.4213     7.0000    -0.4213     2.7089     2.7089    -0.0000
 10 H      0.7699     1.0000     0.2301     0.9391     0.9391     0.0000
 11 H      0.7707     1.0000     0.2293     0.9362     0.9362    -0.0000
 12 H      0.7805     1.0000     0.2195     0.9379     0.9379    -0.0000
 13 C      6.6725     6.0000    -0.6725     3.7403     3.7403     0.0000
 14 C      5.5575     6.0000     0.4425     3.4854     3.4854    -0.0000
 15 N      7.4257     7.0000    -0.4257     2.7280     2.7280    -0.0000
 16 H      0.7600     1.0000     0.2400     0.9322     0.9322     0.0000
 17 H      0.7823     1.0000     0.2177     0.9395     0.9395     0.0000
 18 H      0.7753     1.0000     0.2247     0.9381     0.9381     0.0000
 19 C      6.6787     6.0000    -0.6787     3.7276     3.7276    -0.0000
 20 C      5.6116     6.0000     0.3884     3.6236     3.6236     0.0000
 21 N      7.3936     7.0000    -0.3936     2.8920     2.8920    -0.0000
 22 H      0.7768     1.0000     0.2232     0.9366     0.9366     0.0000
 23 H      0.7765     1.0000     0.2235     0.9404     0.9404     0.0000
 24 H      0.7705     1.0000     0.2295     0.9368     0.9368    -0.0000
 25 C      6.6503     6.0000    -0.6503     3.7599     3.7599    -0.0000
 26 C      5.5898     6.0000     0.4102     3.5667     3.5667     0.0000
 27 N      7.4194     7.0000    -0.4194     2.7711     2.7711     0.0000
 28 H      0.7668     1.0000     0.2332     0.9361     0.9361     0.0000
 29 H      0.7812     1.0000     0.2188     0.9387     0.9387    -0.0000
 30 H      0.7729     1.0000     0.2271     0.9368     0.9368    -0.0000
 31 C      6.5874     6.0000    -0.5874     3.7861     3.7861    -0.0000
 32 C      5.6891     6.0000     0.3109     3.7344     3.7344     0.0000
 33 N      7.3763     7.0000    -0.3763     2.9012     2.9012     0.0000
 34 H      0.7902     1.0000     0.2098     0.9419     0.9419     0.0000
 35 H      0.7703     1.0000     0.2297     0.9367     0.9367    -0.0000
 36 H      0.7898     1.0000     0.2102     0.9417     0.9417     0.0000
 37 C      6.6077     6.0000    -0.6077     3.7873     3.7873     0.0000
 38 C      5.6571     6.0000     0.3429     3.6646     3.6646     0.0000
 39 N      7.4004     7.0000    -0.4004     2.8394     2.8394     0.0000
 40 H      0.7898     1.0000     0.2102     0.9422     0.9422     0.0000
 41 H      0.7786     1.0000     0.2214     0.9422     0.9422     0.0000
 42 H      0.7683     1.0000     0.2317     0.9348     0.9348     0.0000
 43 C      6.6202     6.0000    -0.6202     3.7602     3.7602     0.0000
 44 C      5.6179     6.0000     0.3821     3.5659     3.5659    -0.0000
 45 N      7.4380     7.0000    -0.4380     2.7147     2.7147    -0.0000
 46 H      0.7563     1.0000     0.2437     0.9319     0.9319     0.0000
 47 H      0.7843     1.0000     0.2157     0.9396     0.9396     0.0000
 48 H      0.7818     1.0000     0.2182     0.9395     0.9395     0.0000
 49 C      6.5843     6.0000    -0.5843     3.7804     3.7804     0.0000
 50 C      5.6898     6.0000     0.3102     3.7085     3.7085    -0.0000
 51 N      7.3763     7.0000    -0.3763     2.8801     2.8801    -0.0000
 52 H      0.7687     1.0000     0.2313     0.9365     0.9365    -0.0000
 53 H      0.7888     1.0000     0.2112     0.9412     0.9412     0.0000
 54 H      0.7884     1.0000     0.2116     0.9418     0.9418    -0.0000
 55 C      6.5722     6.0000    -0.5722     3.8234     3.8234     0.0000
 56 C      5.7002     6.0000     0.2998     3.7549     3.7549     0.0000
 57 N      7.3746     7.0000    -0.3746     2.9052     2.9052    -0.0000
 58 H      0.7772     1.0000     0.2228     0.9415     0.9415     0.0000
 59 H      0.7862     1.0000     0.2138     0.9428     0.9428     0.0000
 60 H      0.7876     1.0000     0.2124     0.9400     0.9400     0.0000
 61 C      6.6105     6.0000    -0.6105     3.7805     3.7805    -0.0000
 62 C      5.6640     6.0000     0.3360     3.6545     3.6545    -0.0000
 63 N      7.3925     7.0000    -0.3925     2.8441     2.8441    -0.0000
 64 H      0.7722     1.0000     0.2278     0.9391     0.9391    -0.0000
 65 H      0.7888     1.0000     0.2112     0.9419     0.9419     0.0000
 66 H      0.7728     1.0000     0.2272     0.9384     0.9384    -0.0000
 67 C      6.5826     6.0000    -0.5826     3.7779     3.7779    -0.0000
 68 C      5.6878     6.0000     0.3122     3.7092     3.7092     0.0000
 69 N      7.3718     7.0000    -0.3718     2.8774     2.8774    -0.0000
 70 H      0.7885     1.0000     0.2115     0.9414     0.9414    -0.0000
 71 H      0.7779     1.0000     0.2221     0.9434     0.9434    -0.0000
 72 H      0.7888     1.0000     0.2112     0.9410     0.9410    -0.0000
 73 C      6.5974     6.0000    -0.5974     3.7677     3.7677     0.0000
 74 C      5.6532     6.0000     0.3468     3.6553     3.6553    -0.0000
 75 N      7.3878     7.0000    -0.3878     2.8405     2.8405     0.0000
 76 H      0.7866     1.0000     0.2134     0.9402     0.9402     0.0000
 77 H      0.7880     1.0000     0.2120     0.9405     0.9405     0.0000
 78 H      0.7766     1.0000     0.2234     0.9429     0.9429    -0.0000
 79 C      6.5907     6.0000    -0.5907     3.7841     3.7841    -0.0000
 80 C      5.6822     6.0000     0.3178     3.7274     3.7274    -0.0000
 81 N      7.3757     7.0000    -0.3757     2.9044     2.9044    -0.0000
 82 H      0.7720     1.0000     0.2280     0.9380     0.9380    -0.0000
 83 H      0.7894     1.0000     0.2106     0.9417     0.9417     0.0000
 84 H      0.7889     1.0000     0.2111     0.9416     0.9416    -0.0000
 85 C      6.6193     6.0000    -0.6193     3.7773     3.7773     0.0000
 86 C      5.6433     6.0000     0.3567     3.6885     3.6885    -0.0000
 87 N      7.3981     7.0000    -0.3981     2.8880     2.8880     0.0000
 88 H      0.7750     1.0000     0.2250     0.9400     0.9400     0.0000
 89 H      0.7729     1.0000     0.2271     0.9382     0.9382     0.0000
 90 H      0.7901     1.0000     0.2099     0.9418     0.9418     0.0000
 91 C      6.5935     6.0000    -0.5935     3.7869     3.7869    -0.0000
 92 C      5.6594     6.0000     0.3406     3.7379     3.7379    -0.0000
 93 N      7.3867     7.0000    -0.3867     2.9104     2.9104    -0.0000
 94 H      0.7830     1.0000     0.2170     0.9392     0.9392     0.0000
 95 H      0.7856     1.0000     0.2144     0.9400     0.9400    -0.0000
 96 H      0.7848     1.0000     0.2152     0.9424     0.9424    -0.0000
 97 C      6.5891     6.0000    -0.5891     3.7737     3.7737     0.0000
 98 C      5.6839     6.0000     0.3161     3.7037     3.7037    -0.0000
 99 N      7.3724     7.0000    -0.3724     2.8800     2.8800     0.0000
100 H      0.7740     1.0000     0.2260     0.9410     0.9410     0.0000
101 H      0.7888     1.0000     0.2112     0.9411     0.9411    -0.0000
102 H      0.7891     1.0000     0.2109     0.9414     0.9414     0.0000
103 C      6.6178     6.0000    -0.6178     3.7784     3.7784     0.0000
104 C      5.6546     6.0000     0.3454     3.6562     3.6562    -0.0000
105 N      7.3981     7.0000    -0.3981     2.8509     2.8509    -0.0000
106 H      0.7661     1.0000     0.2339     0.9338     0.9338    -0.0000
107 H      0.7905     1.0000     0.2095     0.9425     0.9425    -0.0000
108 H      0.7748     1.0000     0.2252     0.9400     0.9400    -0.0000
109 C      6.5754     6.0000    -0.5754     3.7875     3.7875     0.0000
110 C      5.6621     6.0000     0.3379     3.6725     3.6725     0.0000
111 N      7.3823     7.0000    -0.3823     2.8521     2.8521     0.0000
112 H      0.7866     1.0000     0.2134     0.9404     0.9404    -0.0000
113 H      0.7866     1.0000     0.2134     0.9402     0.9402     0.0000
114 H      0.7864     1.0000     0.2136     0.9403     0.9403     0.0000
115 C      6.5758     6.0000    -0.5758     3.7871     3.7871    -0.0000
116 C      5.6626     6.0000     0.3374     3.6781     3.6781     0.0000
117 N      7.3816     7.0000    -0.3816     2.8597     2.8597     0.0000
118 H      0.7865     1.0000     0.2135     0.9402     0.9402    -0.0000
119 H      0.7864     1.0000     0.2136     0.9402     0.9402    -0.0000
120 H      0.7870     1.0000     0.2130     0.9404     0.9404    -0.0000

  Mayer bond orders larger than 0.100000
B(  1-C ,  2-C ) :   0.9818 B(  1-C ,  4-H ) :   0.9261 B(  1-C ,  5-H ) :   0.9302 
B(  1-C ,  6-H ) :   0.9369 B(  2-C ,  3-N ) :   2.7446 B(  7-C ,  8-C ) :   0.9601 
B(  7-C , 10-H ) :   0.9166 B(  7-C , 11-H ) :   0.9278 B(  7-C , 12-H ) :   0.9409 
B(  8-C ,  9-N ) :   2.6141 B( 13-C , 14-C ) :   0.9182 B( 13-C , 16-H ) :   0.9246 
B( 13-C , 17-H ) :   0.9307 B( 13-C , 18-H ) :   0.9402 B( 14-C , 15-N ) :   2.6164 
B( 19-C , 20-C ) :   0.8977 B( 19-C , 22-H ) :   0.9421 B( 19-C , 23-H ) :   0.9250 
B( 19-C , 24-H ) :   0.9281 B( 20-C , 21-N ) :   2.7816 B( 25-C , 26-C ) :   0.9548 
B( 25-C , 28-H ) :   0.9158 B( 25-C , 29-H ) :   0.9457 B( 25-C , 30-H ) :   0.9258 
B( 26-C , 27-N ) :   2.6531 B( 31-C , 32-C ) :   0.9693 B( 31-C , 34-H ) :   0.9434 
B( 31-C , 35-H ) :   0.9212 B( 31-C , 36-H ) :   0.9436 B( 32-C , 33-N ) :   2.8100 
B( 37-C , 38-C ) :   0.9769 B( 37-C , 40-H ) :   0.9439 B( 37-C , 41-H ) :   0.9232 
B( 37-C , 42-H ) :   0.9225 B( 38-C , 39-N ) :   2.7238 B( 43-C , 44-C ) :   0.9700 
B( 43-C , 46-H ) :   0.9085 B( 43-C , 47-H ) :   0.9378 B( 43-C , 48-H ) :   0.9414 
B( 44-C , 45-N ) :   2.6263 B( 49-C , 50-C ) :   0.9653 B( 49-C , 52-H ) :   0.9192 
B( 49-C , 53-H ) :   0.9410 B( 49-C , 54-H ) :   0.9436 B( 50-C , 51-N ) :   2.7814 
B( 55-C , 56-C ) :   0.9937 B( 55-C , 58-H ) :   0.9237 B( 55-C , 59-H ) :   0.9295 
B( 55-C , 60-H ) :   0.9382 B( 56-C , 57-N ) :   2.8003 B( 61-C , 62-C ) :   0.9693 
B( 61-C , 64-H ) :   0.9241 B( 61-C , 65-H ) :   0.9453 B( 61-C , 66-H ) :   0.9191 
B( 62-C , 63-N ) :   2.7258 B( 67-C , 68-C ) :   0.9664 B( 67-C , 70-H ) :   0.9419 
B( 67-C , 71-H ) :   0.9211 B( 67-C , 72-H ) :   0.9414 B( 68-C , 69-N ) :   2.7860 
B( 73-C , 74-C ) :   0.9607 B( 73-C , 76-H ) :   0.9423 B( 73-C , 77-H ) :   0.9401 
B( 73-C , 78-H ) :   0.9205 B( 74-C , 75-N ) :   2.7337 B( 79-C , 80-C ) :   0.9661 
B( 79-C , 82-H ) :   0.9158 B( 79-C , 83-H ) :   0.9437 B( 79-C , 84-H ) :   0.9442 
B( 80-C , 81-N ) :   2.8097 B( 85-C , 86-C ) :   0.9551 B( 85-C , 88-H ) :   0.9262 
B( 85-C , 89-H ) :   0.9235 B( 85-C , 90-H ) :   0.9426 B( 86-C , 87-N ) :   2.7794 
B( 91-C , 92-C ) :   0.9586 B( 91-C , 94-H ) :   0.9437 B( 91-C , 95-H ) :   0.9418 
B( 91-C , 96-H ) :   0.9273 B( 92-C , 93-N ) :   2.8119 B( 97-C , 98-C ) :   0.9627 
B( 97-C ,100-H ) :   0.9183 B( 97-C ,101-H ) :   0.9417 B( 97-C ,102-H ) :   0.9433 
B( 98-C , 99-N ) :   2.7871 B(103-C ,104-C ) :   0.9653 B(103-C ,106-H ) :   0.9224 
B(103-C ,107-H ) :   0.9457 B(103-C ,108-H ) :   0.9208 B(104-C ,105-N ) :   2.7337 
B(109-C ,110-C ) :   0.9692 B(109-C ,112-H ) :   0.9401 B(109-C ,113-H ) :   0.9394 
B(109-C ,114-H ) :   0.9405 B(110-C ,111-N ) :   2.7418 B(115-C ,116-C ) :   0.9683 
B(115-C ,118-H ) :   0.9398 B(115-C ,119-H ) :   0.9403 B(115-C ,120-H ) :   0.9403 
B(116-C ,117-N ) :   2.7485 

-------
TIMINGS
-------

Total SCF time: 0 days 0 hours 6 min 14 sec 

Total time                  ....     374.473 sec
Sum of individual times     ....     361.792 sec  ( 96.6%)

Fock matrix formation       ....     317.466 sec  ( 84.8%)
  Split-RI-J                ....      61.889 sec  ( 19.5% of F)
  XC integration            ....     108.005 sec  ( 34.0% of F)
    Basis function eval.    ....      20.495 sec  ( 19.0% of XC)
    Density eval.           ....      37.752 sec  ( 35.0% of XC)
    XC-Functional eval.     ....      12.524 sec  ( 11.6% of XC)
    XC-Potential eval.      ....      30.506 sec  ( 28.2% of XC)
Diagonalization             ....       4.090 sec  (  1.1%)
Density matrix formation    ....       0.538 sec  (  0.1%)
Population analysis         ....       0.676 sec  (  0.2%)
Initial guess               ....       4.773 sec  (  1.3%)
Orbital Transformation      ....       0.000 sec  (  0.0%)
Orbital Orthonormalization  ....       0.000 sec  (  0.0%)
DIIS solution               ....       2.486 sec  (  0.7%)
SOSCF solution              ....       3.798 sec  (  1.0%)
Grid generation             ....      27.964 sec  (  7.5%)

Maximum memory used throughout the entire SCF-calculation: 1464.2 MB


-------------------------------------------------------------------------------
                          DFT DISPERSION CORRECTION                            
                                                                               
                                 DFTD4 V2.5                                    
-------------------------------------------------------------------------------
The R2SCAN3C composite method is recognized
Using three-body term ABC
Active option DFTDOPT                   ...         5   

Starting D4
-------------------------   ----------------
Dispersion correction           -0.044608927
-------------------------   ----------------

NOTIFICATION: Different basis set in ORCA and otool_gcp:
ORCA: 1551  gCP: 1549 
If you are NOT using ECPs, check your basis set inputs!
------------------   -----------------
gCP correction             0.061485367
------------------   -----------------

-------------------------   --------------------
FINAL SINGLE POINT ENERGY     -2662.044058311958
-------------------------   --------------------


                            ***************************************
                            *     ORCA property calculations      *
                            ***************************************

                                    ---------------------
                                    Active property flags
                                    ---------------------
   (+) Dipole Moment


------------------------------------------------------------------------------
                       ORCA ELECTRIC PROPERTIES CALCULATION
------------------------------------------------------------------------------

Dipole Moment Calculation                       ... on
Quadrupole Moment Calculation                   ... off
Polarizability Calculation                      ... off
GBWName                                         ... ORCA.gbw
Electron density                                ... ORCA.scfp
The origin for moment calculation is the CENTER OF MASS  = (-0.003433, -0.060698 -0.039519)

-------------
DIPOLE MOMENT
-------------
                                X             Y             Z
Electronic contribution:     -5.94555      -7.32168       4.91380
Nuclear contribution   :      0.90223       5.48670      -4.91919
                        -----------------------------------------
Total Dipole Moment    :     -5.04332      -1.83498      -0.00539
                        -----------------------------------------
Magnitude (a.u.)       :      5.36677
Magnitude (Debye)      :     13.64126



--------------------
Rotational spectrum 
--------------------
 
Rotational constants in cm-1:     0.001027     0.000802     0.000735 
Rotational constants in MHz :    30.779288    24.041126    22.022124 

 Dipole components along the rotational axes: 
x,y,z [a.u.] :    -5.180960     0.817882     1.136217 
x,y,z [Debye]:   -13.168953     2.078890     2.888035 

 

Timings for individual modules:

Sum of individual times         ...      378.526 sec (=   6.309 min)
GTO integral calculation        ...        3.268 sec (=   0.054 min)   0.9 %
SCF iterations                  ...      375.259 sec (=   6.254 min)  99.1 %
                             ****ORCA TERMINATED NORMALLY****
TOTAL RUN TIME: 0 days 0 hours 6 minutes 21 seconds 377 msec
