121
 energy: -174.143234054072 gnorm: 0.000176579951 xtb: 6.6.0 (83090be673e2468c27fcd74d519548d8d51bd8df)
Li          -2.11077495243704       -1.84317787651596        1.10508590243198
C            1.53464986649855       -0.83353015809763        1.73074760835844
C            1.68365925015685       -0.20510411930836        0.45901333751087
N            1.79134058781550        0.29090586142293       -0.56857478873219
H            0.50132705560722       -1.16438274029791        1.84021186668523
H            1.78309660162357       -0.12857415762297        2.52413962379681
H            2.20206863867141       -1.69198181696236        1.79082146866101
C           -1.04206980401349        1.84896368006798       -1.30455690606168
C           -1.48243166261329        0.80074475506158       -0.45608701020587
N           -1.84356996031577       -0.04909221910809        0.22077232426811
H           -1.57370523907137        1.79696346267625       -2.25651495886372
H            0.02868783538191        1.73111368897443       -1.47097049302763
H           -1.23306934061645        2.81286023534946       -0.83571169883382
C           -0.20152386562980       -4.80347568801096       -1.62396351035869
C           -0.56084320113872       -3.89826838750828       -0.59081182233993
N           -0.84796487989025       -3.17129156293325        0.24544575167531
H           -0.51862792427849       -4.38165795221594       -2.57903941535566
H           -0.70104887335057       -5.75702767172752       -1.45861303662806
H            0.87932446536761       -4.94177819602544       -1.63632298407466
C           -3.38021390192759       -1.23548914478021       -2.87283546001813
C           -2.24323753005586       -1.96533451220975       -3.32534726310364
N           -1.32772709144222       -2.55222840519957       -3.68881757133639
H           -3.35503801922254       -1.17576541175992       -1.78512779113710
H           -4.29010917338854       -1.74498901568366       -3.19060981340225
H           -3.35472292032044       -0.23069867017871       -3.29471810854616
C           -5.28683863624728       -4.36246645972165       -0.74577846773809
C           -4.51258846934898       -3.42071280240917       -0.01874117890845
N           -3.89303874085569       -2.65973266224088        0.57159975625184
H           -5.48379541788992       -3.98108465757340       -1.74924138557739
H           -6.23191360321199       -4.53998947707924       -0.23459769716473
H           -4.72540257876965       -5.29482846947403       -0.81039455144679
C            3.98976237816375        3.48114482825655       -4.60681298994007
C            3.46542136428815        4.21710032486885       -3.50090328938425
N            3.03703572501868        4.81306269799750       -2.62081354468579
H            3.17269286384669        3.01182032443071       -5.15260877372529
H            4.67068179401242        2.71111296973529       -4.24118967540178
H            4.53192572351700        4.15542701728401       -5.26844460580476
C            3.60249454512700        4.93346882757283        0.66428536415077
C            2.49504280583924        4.75174645449117        1.53796521141599
N            1.61435801923809        4.60144313861676        2.25827699684099
H            4.04736525173285        5.91238178879439        0.83730749219906
H            3.27447861574565        4.86499960908715       -0.37375033221648
H            4.34269192920926        4.15605465619117        0.85850940206681
C           -2.62103914023676       -0.15587061397842        5.19288456944257
C           -2.31887376599140       -0.92342559794717        4.03685871866810
N           -2.07289481126036       -1.54692125409463        3.10813573138215
H           -2.61448510391911        0.90249894004886        4.91939165340344
H           -1.87338797035985       -0.33300792198790        5.96457664066407
H           -3.60580835949201       -0.42664959714839        5.57071772145150
C            2.68342911705226       -2.62396887865229        5.08035662988084
C            3.34672102596342       -3.17412447787439        3.94247712239565
N            3.87028543069313       -3.61274620453668        3.02214297764883
H            2.53451281076660       -1.55375656387064        4.92868254105143
H            3.29423915110103       -2.78156201578101        5.96835262115860
H            1.71929466033345       -3.11319280657031        5.20974630187489
C           -4.77104978612156        1.02670685376532        2.09788178750501
C           -5.35871411564143        1.87725192121226        1.11342277937975
N           -5.82943115173973        2.56409564707686        0.32603961642117
H           -4.13008912212162        1.62568432137568        2.74636729538046
H           -4.16945591336033        0.25961467227406        1.60858199985738
H           -5.55808278734540        0.55908085831090        2.68690312432410
C           -1.50434987792701        5.06186128240650        3.36384569364362
C           -2.09070720712391        3.81320190275192        3.70913821212897
N           -2.55742484848990        2.80278206926401        3.98806045708422
H           -0.49693730746552        4.89775532760704        2.97802797479111
H           -1.45856814451464        5.70339263022801        4.24267192677111
H           -2.11151768106213        5.54531929428507        2.59669103377361
C            7.18316491547162        0.42111281819812        1.96291121396528
C            6.40052805064170        1.58227128691569        1.67931871994443
N            5.77736432013389        2.51795226248150        1.45943309630221
H            8.23830006580877        0.69009408691752        1.98696867399703
H            7.01858393081116       -0.33003131361283        1.18819223930097
H            6.88858779499851        0.01085801567525        2.92790065647554
C            2.45599853960482        3.17818038640861        5.15557669731930
C            2.40128940229376        1.77367615977527        4.91470280675414
N            2.35196546916627        0.64578420539019        4.71775383096044
H            3.48410119982613        3.47380189560182        5.36072355090274
H            1.82596339677055        3.42944375578446        6.00753770378752
H            2.10128221431316        3.70445630417340        4.26672259972912
C           -5.60954153300601        5.76044775718036       -0.34511990052845
C           -4.47608498329892        6.08550222831155        0.46059172164563
N           -3.56411805633734        6.33400070298742        1.10826739379222
H           -5.81353843809740        4.69203352134529       -0.24792288213236
H           -5.39938748846317        5.99989878073216       -1.38633117237070
H           -6.47427140666508        6.32897405454907       -0.00620199527668
C            1.87731595272111       -1.61745583516975       -3.29686022004401
C            2.53448145236878       -2.76628140901276       -2.76853430157606
N            3.04556609687167       -3.69594335300930       -2.33347219024254
H            1.89880244406015       -0.82553770565753       -2.54647693942908
H            0.84176259493620       -1.87182190679256       -3.52924253400950
H            2.38659593895044       -1.28455956937532       -4.19933719542284
C           -2.02388621139296       -5.40177134678538        2.64551351185458
C           -2.45126927039318       -5.88258003826220        1.36968309305247
N           -2.79719523693802       -6.27138823235932        0.34911140638960
H           -1.03195986762886       -5.79343075790974        2.86625890977096
H           -2.72474421881509       -5.73157490717701        3.41115967785068
H           -1.99031318279195       -4.31204018933280        2.61749929162216
C            8.03132771939150       -0.27539500514403       -2.73297602923384
C            6.97997919635086        0.50703128305848       -3.30060776073489
N            6.14021295155083        1.13585749123516       -3.76075049312182
H            7.63885036595194       -0.85569235425401       -1.89573847099058
H            8.82374451609799        0.38303103533332       -2.37982389914932
H            8.42901639487634       -0.95316528250748       -3.48718336458210
C            5.27492944804385       -4.08472295375334        0.06803233416304
C            6.13633013059906       -2.96432861355541       -0.09759992655531
N            6.82710626729039       -2.05720482980235       -0.22702120413913
H            4.79563092221117       -4.02606013252247        1.04606265106631
H            5.85232950831574       -5.00501923894336       -0.00258257502043
H            4.51457860853999       -4.06728282763056       -0.71474521275461
C           -7.45782152370918       -3.30325315323118       -5.85989378313585
C           -6.68396641977496       -3.21859310092104       -4.66241145161910
N           -6.06566685727331       -3.14971415940075       -3.70068873963767
H           -7.96897359578286       -2.35624470560196       -6.03034541982074
H           -8.19459129377936       -4.09976794153765       -5.76028255015466
H           -6.80164906137334       -3.51988223222329       -6.70230804504832
C           -2.96570997433615        3.48158311323547       -6.10863623098547
C           -2.86380417897110        2.58030492790175       -5.00487010515598
N           -2.78148376658890        1.85856071274737       -4.11934585628416
H           -4.01190129761328        3.73465261321810       -6.27716989273947
H           -2.55723592010327        3.01043780061960       -7.00209838441811
H           -2.40402084006340        4.38885580379398       -5.88783024683523
