
                                 *****************
                                 * O   R   C   A *
                                 *****************

                                            #,                                       
                                            ###                                      
                                            ####                                     
                                            #####                                    
                                            ######                                   
                                           ########,                                 
                                     ,,################,,,,,                         
                               ,,#################################,,                 
                          ,,##########################################,,             
                       ,#########################################, ''#####,          
                    ,#############################################,,   '####,        
                  ,##################################################,,,,####,       
                ,###########''''           ''''###############################       
              ,#####''   ,,,,##########,,,,          '''####'''          '####       
            ,##' ,,,,###########################,,,                        '##       
           ' ,,###''''                  '''############,,,                           
         ,,##''                                '''############,,,,        ,,,,,,###''
      ,#''                                            '''#######################'''  
     '                                                          ''''####''''         
             ,#######,   #######,   ,#######,      ##                                
            ,#'     '#,  ##    ##  ,#'     '#,    #''#        ######   ,####,        
            ##       ##  ##   ,#'  ##            #'  '#       #        #'  '#        
            ##       ##  #######   ##           ,######,      #####,   #    #        
            '#,     ,#'  ##    ##  '#,     ,#' ,#      #,         ##   #,  ,#        
             '#######'   ##     ##  '#######'  #'      '#     #####' # '####'        



                  #######################################################
                  #                        -***-                        #
                  #          Department of theory and spectroscopy      #
                  #    Directorship and core code : Frank Neese         #
                  #        Max Planck Institute fuer Kohlenforschung    #
                  #                Kaiser Wilhelm Platz 1               #
                  #                 D-45470 Muelheim/Ruhr               #
                  #                      Germany                        #
                  #                                                     #
                  #                  All rights reserved                #
                  #                        -***-                        #
                  #######################################################


                         Program Version 5.0.4 -  RELEASE  -


 With contributions from (in alphabetic order):
   Daniel Aravena         : Magnetic Suceptibility
   Michael Atanasov       : Ab Initio Ligand Field Theory (pilot matlab implementation)
   Alexander A. Auer      : GIAO ZORA, VPT2 properties, NMR spectrum
   Ute Becker             : Parallelization
   Giovanni Bistoni       : ED, misc. LED, open-shell LED, HFLD
   Martin Brehm           : Molecular dynamics
   Dmytro Bykov           : SCF Hessian
   Vijay G. Chilkuri      : MRCI spin determinant printing, contributions to CSF-ICE
   Dipayan Datta          : RHF DLPNO-CCSD density
   Achintya Kumar Dutta   : EOM-CC, STEOM-CC
   Dmitry Ganyushin       : Spin-Orbit,Spin-Spin,Magnetic field MRCI
   Miquel Garcia          : C-PCM and meta-GGA Hessian, CC/C-PCM, Gaussian charge scheme
   Yang Guo               : DLPNO-NEVPT2, F12-NEVPT2, CIM, IAO-localization
   Andreas Hansen         : Spin unrestricted coupled pair/coupled cluster methods
   Benjamin Helmich-Paris : MC-RPA, TRAH-SCF, COSX integrals
   Lee Huntington         : MR-EOM, pCC
   Robert Izsak           : Overlap fitted RIJCOSX, COSX-SCS-MP3, EOM
   Marcus Kettner         : VPT2
   Christian Kollmar      : KDIIS, OOCD, Brueckner-CCSD(T), CCSD density, CASPT2, CASPT2-K
   Simone Kossmann        : Meta GGA functionals, TD-DFT gradient, OOMP2, MP2 Hessian
   Martin Krupicka        : Initial AUTO-CI
   Lucas Lang             : DCDCAS
   Marvin Lechner         : AUTO-CI (C++ implementation), FIC-MRCC
   Dagmar Lenk            : GEPOL surface, SMD
   Dimitrios Liakos       : Extrapolation schemes; Compound Job, initial MDCI parallelization
   Dimitrios Manganas     : Further ROCIS development; embedding schemes
   Dimitrios Pantazis     : SARC Basis sets
   Anastasios Papadopoulos: AUTO-CI, single reference methods and gradients
   Taras Petrenko         : DFT Hessian,TD-DFT gradient, ASA, ECA, R-Raman, ABS, FL, XAS/XES, NRVS
   Peter Pinski           : DLPNO-MP2, DLPNO-MP2 Gradient
   Christoph Reimann      : Effective Core Potentials
   Marius Retegan         : Local ZFS, SOC
   Christoph Riplinger    : Optimizer, TS searches, QM/MM, DLPNO-CCSD(T), (RO)-DLPNO pert. Triples
   Tobias Risthaus        : Range-separated hybrids, TD-DFT gradient, RPA, STAB
   Michael Roemelt        : Original ROCIS implementation
   Masaaki Saitow         : Open-shell DLPNO-CCSD energy and density
   Barbara Sandhoefer     : DKH picture change effects
   Avijit Sen             : IP-ROCIS
   Kantharuban Sivalingam : CASSCF convergence, NEVPT2, FIC-MRCI
   Bernardo de Souza      : ESD, SOC TD-DFT
   Georgi Stoychev        : AutoAux, RI-MP2 NMR, DLPNO-MP2 response
   Willem Van den Heuvel  : Paramagnetic NMR
   Boris Wezisla          : Elementary symmetry handling
   Frank Wennmohs         : Technical directorship


 We gratefully acknowledge several colleagues who have allowed us to
 interface, adapt or use parts of their codes:
   Stefan Grimme, W. Hujo, H. Kruse, P. Pracht,  : VdW corrections, initial TS optimization,
                  C. Bannwarth, S. Ehlert          DFT functionals, gCP, sTDA/sTD-DF
   Ed Valeev, F. Pavosevic, A. Kumar             : LibInt (2-el integral package), F12 methods
   Garnet Chan, S. Sharma, J. Yang, R. Olivares  : DMRG
   Ulf Ekstrom                                   : XCFun DFT Library
   Mihaly Kallay                                 : mrcc  (arbitrary order and MRCC methods)
   Jiri Pittner, Ondrej Demel                    : Mk-CCSD
   Frank Weinhold                                : gennbo (NPA and NBO analysis)
   Christopher J. Cramer and Donald G. Truhlar   : smd solvation model
   Lars Goerigk                                  : TD-DFT with DH, B97 family of functionals
   V. Asgeirsson, H. Jonsson                     : NEB implementation
   FAccTs GmbH                                   : IRC, NEB, NEB-TS, DLPNO-Multilevel, CI-OPT
                                                   MM, QMMM, 2- and 3-layer-ONIOM, Crystal-QMMM,
                                                   LR-CPCM, SF, NACMEs, symmetry and pop. for TD-DFT,
                                                   nearIR, NL-DFT gradient (VV10), updates on ESD,
                                                   ML-optimized integration grids
   S Lehtola, MJT Oliveira, MAL Marques          : LibXC Library
   Liviu Ungur et al                             : ANISO software


 Your calculation uses the libint2 library for the computation of 2-el integrals
 For citations please refer to: http://libint.valeyev.net

 Your ORCA version has been built with support for libXC version: 5.1.0
 For citations please refer to: https://tddft.org/programs/libxc/

 This ORCA versions uses:
   CBLAS   interface :  Fast vector & matrix operations
   LAPACKE interface :  Fast linear algebra routines
   SCALAPACK package :  Parallel linear algebra routines
   Shared memory     :  Shared parallel matrices
   BLAS/LAPACK       :  OpenBLAS 0.3.15  USE64BITINT DYNAMIC_ARCH NO_AFFINITY SkylakeX SINGLE_THREADED
        Core in use  :  SkylakeX
   Copyright (c) 2011-2014, The OpenBLAS Project




***************************************
The coordinates will be read from file: xtbopt.xyz
***************************************


Your calculation utilizes the geometrical counterpoise correction gCP
Please cite in your paper:
H.Kruse, S. Grimme J.Chem.Phys., 136, (2012), 154101 
   

Your calculation utilizes the atom-pairwise dispersion correction
based on tight binding partial charges (D4)
Cite in your paper:
E.Caldeweyher, C.Bannwarth, S.Grimme, J.Chem.Phys., (2017), 147, 034112.
E.Caldeweyher, S.Ehlert, A.Hansen, H.Neugebauer, S.Grimme, J.Chem.Phys., (2018), in progress.
   

Your calculation utilizes the SMD solvation module
Please cite in your paper:
A.V. Marenich, C.J. Cramer, D.G. Truhlar J. Phys. Chem. B, 113, (2009), 6378 

================================================================================

----- Orbital basis set information -----
Your calculation utilizes the basis: def2-mTZVPP
   Stefan Grimme, Andreas Hansen, Sebastian Ehlert, and Jan-Michael Mewes 
   J. Chem. Phys. 154, 000000 (2021). DOI: 10.1063/5.0040021

----- AuxJ basis set information -----
Your calculation utilizes the auxiliary basis: def2/J
   F. Weigend, Phys. Chem. Chem. Phys. 8, 1057 (2006).

================================================================================
                                        WARNINGS
                       Please study these warnings very carefully!
================================================================================

Using LibXC functional ID 497 : Re-regularized SCAN exchange by Furness et al
[ 1]  J. W. Furness, A. D. Kaplan, J. Ning, J. P. Perdew, and J. Sun, J. Phys. Chem. Lett. 11, 8208 (2020)
[ 2]  J. W. Furness, A. D. Kaplan, J. Ning, J. P. Perdew, and J. Sun, J. Phys. Chem. Lett. 11, 9248 (2020)
Using LibXC functional ID 498 : Re-regularized SCAN correlation by Furness et al
[ 1]  J. W. Furness, A. D. Kaplan, J. Ning, J. P. Perdew, and J. Sun, J. Phys. Chem. Lett. 11, 8208 (2020)
[ 2]  J. W. Furness, A. D. Kaplan, J. Ning, J. P. Perdew, and J. Sun, J. Phys. Chem. Lett. 11, 9248 (2020)
Using LibXC functional ID 497 : Re-regularized SCAN exchange by Furness et al
[ 1]  J. W. Furness, A. D. Kaplan, J. Ning, J. P. Perdew, and J. Sun, J. Phys. Chem. Lett. 11, 8208 (2020)
[ 2]  J. W. Furness, A. D. Kaplan, J. Ning, J. P. Perdew, and J. Sun, J. Phys. Chem. Lett. 11, 9248 (2020)
Using LibXC functional ID 498 : Re-regularized SCAN correlation by Furness et al
[ 1]  J. W. Furness, A. D. Kaplan, J. Ning, J. P. Perdew, and J. Sun, J. Phys. Chem. Lett. 11, 8208 (2020)
[ 2]  J. W. Furness, A. D. Kaplan, J. Ning, J. P. Perdew, and J. Sun, J. Phys. Chem. Lett. 11, 9248 (2020)

INFO   : the flag for use of the SHARK integral package has been found!

================================================================================
                                       INPUT FILE
================================================================================
NAME = ORCA.in
|  1> ! r2SCAN-3c ENERGY TightSCF defgrid3 def2/J
|  2> %maxcore 8000
|  3> %PAL NPROCS 8 END
|  4> %CPCM SMD TRUE
|  5>       SMDSOLVENT "MeCN"
|  6> END
|  7> *xyzfile 2 1  xtbopt.xyz
|  8> 
|  9>                          ****END OF INPUT****
================================================================================

                       ****************************
                       * Single Point Calculation *
                       ****************************

---------------------------------
CARTESIAN COORDINATES (ANGSTROEM)
---------------------------------
  Mg     0.671589   -1.527731    0.320707
  C     -3.512874    0.029131    0.820675
  C     -2.261013   -0.473445    0.384769
  N     -1.257747   -0.888861    0.021432
  H     -3.370428    0.999745    1.294094
  H     -3.943189   -0.665770    1.546605
  H     -4.191484    0.138664   -0.023931
  C      3.376136   10.041002   -0.444348
  C      3.079004    8.801213    0.207850
  N      2.841384    7.808766    0.726803
  H      4.415098   10.310881   -0.258511
  H      2.723608   10.822493   -0.056837
  H      3.213989    9.935848   -1.516385
  C     -2.116848   -2.156725   -7.806509
  C     -1.089518   -1.937347   -6.842776
  N     -0.273758   -1.768212   -6.055996
  H     -1.720493   -2.727714   -8.645061
  H     -2.496773   -1.200456   -8.163093
  H     -2.925174   -2.718163   -7.333161
  C      0.209335   -0.354905    4.764391
  C      0.338651   -0.773165    3.415391
  N      0.436569   -1.104617    2.324807
  H     -0.791853   -0.585276    5.126388
  H      0.376481    0.723697    4.821285
  H      0.943634   -0.869489    5.382388
  C      5.829257   -9.525314    4.292164
  C      4.812176   -8.545867    4.049610
  N      4.001255   -7.761607    3.855356
  H      5.817664  -10.267802    3.495051
  H      5.643579  -10.016763    5.246579
  H      6.803669   -9.038828    4.319590
  C     -1.051766    0.441925   -3.446615
  C     -0.255522    1.623955   -3.388992
  N      0.391697    2.568850   -3.334149
  H     -2.091611    0.713212   -3.629217
  H     -0.965644   -0.091854   -2.499626
  H     -0.703768   -0.193581   -4.261064
  C      4.920370   -2.633442    1.685945
  C      3.633524   -2.357210    1.157179
  N      2.596030   -2.137513    0.727935
  H      5.114002   -1.957518    2.522629
  H      5.677000   -2.479029    0.917738
  H      4.961092   -3.663521    2.038252
  C      8.780170    1.253080   -3.700139
  C      7.638913    0.667392   -3.062029
  N      6.726003    0.201877   -2.552116
  H      8.780646    2.328996   -3.529144
  H      8.739545    1.057095   -4.771005
  H      9.690985    0.820595   -3.287644
  C      5.799453    1.133525    5.992726
  C      5.564090    0.179823    4.953800
  N      5.370202   -0.583727    4.123255
  H      6.745872    1.642490    5.812763
  H      5.841767    0.622430    6.954028
  H      4.991100    1.863712    6.004777
  C     -5.682770   -3.202278    5.066187
  C     -5.107321   -2.515175    3.952689
  N     -4.643705   -1.965346    3.061991
  H     -6.461723   -3.878668    4.715703
  H     -6.117018   -2.478715    5.755488
  H     -4.909928   -3.773151    5.579643
  C      0.594398   -6.951480    7.521159
  C     -0.093166   -5.887544    6.852562
  N     -0.641520   -5.038111    6.315927
  H      0.512937   -7.863892    6.931678
  H      0.151594   -7.113082    8.503409
  H      1.645187   -6.688099    7.635275
  C     -1.766979   13.894865   -4.028130
  C     -1.169969   12.754455   -3.399438
  N     -0.694516   11.842097   -2.897350
  H     -1.340988   14.805872   -3.609445
  H     -2.842316   13.884470   -3.854085
  H     -1.572375   13.862761   -5.099494
  C     -0.648705   -5.803149    1.361362
  C     -0.288467   -4.491163    0.959439
  N     -0.006684   -3.433739    0.625568
  H     -1.558825   -5.765469    1.958696
  H      0.155047   -6.237121    1.954918
  H     -0.820499   -6.425327    0.479817
  C      2.087795   -2.215831   -3.953344
  C      1.487612   -2.061995   -2.677181
  N      0.979578   -1.936656   -1.659577
  H      2.523940   -3.209984   -4.041082
  H      2.866390   -1.465120   -4.083371
  H      1.328956   -2.084576   -4.729205
  C     -5.995926    2.016927   -6.032524
  C     -5.009048    1.511695   -5.127981
  N     -4.219691    1.105408   -4.405410
  H     -5.508321    2.590269   -6.820307
  H     -6.688945    2.661336   -5.492737
  H     -6.543887    1.185527   -6.474836
  C     -3.960466   -3.968353   -3.255224
  C     -4.068946   -3.888705   -4.678679
  N     -4.151703   -3.822479   -5.819484
  H     -2.910387   -3.922937   -2.970321
  H     -4.393183   -4.906498   -2.910113
  H     -4.497270   -3.133722   -2.807328
  C     -1.621849   -9.556513   -2.959042
  C     -1.402201   -8.552999   -1.964490
  N     -1.228213   -7.746794   -1.170574
  H     -0.868177  -10.337318   -2.861957
  H     -1.553912   -9.108889   -3.950134
  H     -2.611587   -9.992181   -2.825374
  C     -1.660756    7.056914   -1.429627
  C     -1.998016    5.930918   -0.611670
  N     -2.263302    5.029565    0.042357
  H     -2.491120    7.287354   -2.095788
  H     -0.776418    6.823245   -2.020890
  H     -1.456160    7.919576   -0.797003
  C      0.693271    5.397573    4.671958
  C      0.687485    3.969763    4.725082
  N      0.686636    2.825573    4.769217
  H      0.260870    5.798387    5.588259
  H      0.105596    5.731732    3.817778
  H      1.716858    5.755557    4.567365
  C      2.227745    2.701953   -0.690802
  C      1.740475    1.422893   -0.315874
  N      1.342126    0.391088   -0.024570
  H      1.745872    2.993232   -1.628017
  H      3.306423    2.658795   -0.835398
  H      1.990439    3.432076    0.081522

----------------------------
CARTESIAN COORDINATES (A.U.)
----------------------------
  NO LB      ZA    FRAG     MASS         X           Y           Z
   0 Mg   12.0000    0    24.305    1.269120   -2.886994    0.606049
   1 C     6.0000    0    12.011   -6.638371    0.055050    1.550850
   2 C     6.0000    0    12.011   -4.272695   -0.894681    0.727108
   3 N     7.0000    0    14.007   -2.376797   -1.679705    0.040501
   4 H     1.0000    0     1.008   -6.369185    1.889244    2.445483
   5 H     1.0000    0     1.008   -7.451548   -1.258124    2.922659
   6 H     1.0000    0     1.008   -7.920756    0.262037   -0.045223
   7 C     6.0000    0    12.011    6.379973   18.974744   -0.839695
   8 C     6.0000    0    12.011    5.818475   16.631882    0.392779
   9 N     7.0000    0    14.007    5.369437   14.756430    1.373458
  10 H     1.0000    0     1.008    8.343327   19.484742   -0.488516
  11 H     1.0000    0     1.008    5.146873   20.451547   -0.107406
  12 H     1.0000    0     1.008    6.073559   18.776032   -2.865552
  13 C     6.0000    0    12.011   -4.000263   -4.075620  -14.752164
  14 C     6.0000    0    12.011   -2.058890   -3.661056  -12.930972
  15 N     7.0000    0    14.007   -0.517327   -3.341437  -11.444173
  16 H     1.0000    0     1.008   -3.251260   -5.154633  -16.336799
  17 H     1.0000    0     1.008   -4.718218   -2.268533  -15.426010
  18 H     1.0000    0     1.008   -5.527778   -5.136584  -13.857666
  19 C     6.0000    0    12.011    0.395585   -0.670674    9.003394
  20 C     6.0000    0    12.011    0.639958   -1.461070    6.454154
  21 N     7.0000    0    14.007    0.824996   -2.087423    4.393248
  22 H     1.0000    0     1.008   -1.496385   -1.106012    9.687469
  23 H     1.0000    0     1.008    0.711446    1.367588    9.110908
  24 H     1.0000    0     1.008    1.783210   -1.643097   10.171239
  25 C     6.0000    0    12.011   11.015698  -18.000236    8.111015
  26 C     6.0000    0    12.011    9.093695  -16.149348    7.652654
  27 N     7.0000    0    14.007    7.561276  -14.667311    7.285567
  28 H     1.0000    0     1.008   10.993791  -19.403334    6.604689
  29 H     1.0000    0     1.008   10.664818  -18.928939    9.914597
  30 H     1.0000    0     1.008   12.857071  -17.080909    8.162842
  31 C     6.0000    0    12.011   -1.987550    0.835118   -6.513159
  32 C     6.0000    0    12.011   -0.482868    3.068830   -6.404267
  33 N     7.0000    0    14.007    0.740201    4.854422   -6.300629
  34 H     1.0000    0     1.008   -3.952572    1.347775   -6.858226
  35 H     1.0000    0     1.008   -1.824804   -0.173579   -4.723609
  36 H     1.0000    0     1.008   -1.329928   -0.365816   -8.052244
  37 C     6.0000    0    12.011    9.298151   -4.976485    3.185974
  38 C     6.0000    0    12.011    6.866365   -4.454481    2.186751
  39 N     7.0000    0    14.007    4.905785   -4.039315    1.375598
  40 H     1.0000    0     1.008    9.664063   -3.699174    4.767078
  41 H     1.0000    0     1.008   10.727974   -4.684686    1.734274
  42 H     1.0000    0     1.008    9.375105   -6.923051    3.851739
  43 C     6.0000    0    12.011   16.592116    2.367978   -6.992249
  44 C     6.0000    0    12.011   14.435454    1.261189   -5.786397
  45 N     7.0000    0    14.007   12.710304    0.381491   -4.822800
  46 H     1.0000    0     1.008   16.593017    4.401164   -6.669117
  47 H     1.0000    0     1.008   16.515346    1.997620   -9.015892
  48 H     1.0000    0     1.008   18.313307    1.550699   -6.212746
  49 C     6.0000    0    12.011   10.959378    2.142051   11.324612
  50 C     6.0000    0    12.011   10.514606    0.339816    9.361326
  51 N     7.0000    0    14.007   10.148212   -1.103084    7.791823
  52 H     1.0000    0     1.008   12.747851    3.103856   10.984529
  53 H     1.0000    0     1.008   11.039340    1.176221   13.141208
  54 H     1.0000    0     1.008    9.431812    3.521905   11.347384
  55 C     6.0000    0    12.011  -10.738879   -6.051428    9.573707
  56 C     6.0000    0    12.011   -9.651438   -4.752992    7.469500
  57 N     7.0000    0    14.007   -8.775330   -3.713966    5.786324
  58 H     1.0000    0     1.008  -12.210887   -7.329620    8.911386
  59 H     1.0000    0     1.008  -11.559488   -4.684092   10.876297
  60 H     1.0000    0     1.008   -9.278419   -7.130221   10.543997
  61 C     6.0000    0    12.011    1.123249  -13.136393   14.212931
  62 C     6.0000    0    12.011   -0.176058  -11.125845   12.949465
  63 N     7.0000    0    14.007   -1.212298   -9.520650   11.935372
  64 H     1.0000    0     1.008    0.969310  -14.860602   13.098974
  65 H     1.0000    0     1.008    0.286472  -13.441778   16.069115
  66 H     1.0000    0     1.008    3.108953  -12.638675   14.428579
  67 C     6.0000    0    12.011   -3.339107   26.257490   -7.612063
  68 C     6.0000    0    12.011   -2.210922   24.102427   -6.424007
  69 N     7.0000    0    14.007   -1.312445   22.378320   -5.475197
  70 H     1.0000    0     1.008   -2.534099   27.979043   -6.820862
  71 H     1.0000    0     1.008   -5.371199   26.237846   -7.283166
  72 H     1.0000    0     1.008   -2.971359   26.196822   -9.636647
  73 C     6.0000    0    12.011   -1.225876  -10.966362    2.572601
  74 C     6.0000    0    12.011   -0.545124   -8.487068    1.813077
  75 N     7.0000    0    14.007   -0.012630   -6.488827    1.182152
  76 H     1.0000    0     1.008   -2.945752  -10.895158    3.701399
  77 H     1.0000    0     1.008    0.292996  -11.786450    3.694259
  78 H     1.0000    0     1.008   -1.550518  -12.142108    0.906722
  79 C     6.0000    0    12.011    3.945361   -4.187314   -7.470738
  80 C     6.0000    0    12.011    2.811179   -3.896607   -5.059140
  81 N     7.0000    0    14.007    1.851135   -3.659749   -3.136147
  82 H     1.0000    0     1.008    4.769556   -6.065991   -7.636539
  83 H     1.0000    0     1.008    5.416692   -2.768675   -7.716453
  84 H     1.0000    0     1.008    2.511363   -3.939277   -8.936902
  85 C     6.0000    0    12.011  -11.330659    3.811440  -11.399819
  86 C     6.0000    0    12.011   -9.465728    2.856689   -9.690481
  87 N     7.0000    0    14.007   -7.974061    2.088919   -8.325017
  88 H     1.0000    0     1.008  -10.409218    4.894898  -12.888512
  89 H     1.0000    0     1.008  -12.640274    5.029196  -10.379768
  90 H     1.0000    0     1.008  -12.366155    2.240321  -12.235667
  91 C     6.0000    0    12.011   -7.484197   -7.499100   -6.151482
  92 C     6.0000    0    12.011   -7.689193   -7.348588   -8.841423
  93 N     7.0000    0    14.007   -7.845581   -7.223439  -10.997232
  94 H     1.0000    0     1.008   -5.499833   -7.413277   -5.613094
  95 H     1.0000    0     1.008   -8.301912   -9.271937   -5.499317
  96 H     1.0000    0     1.008   -8.498609   -5.921877   -5.305082
  97 C     6.0000    0    12.011   -3.064850  -18.059192   -5.591779
  98 C     6.0000    0    12.011   -2.649776  -16.162826   -3.712348
  99 N     7.0000    0    14.007   -2.320986  -14.639320   -2.212065
 100 H     1.0000    0     1.008   -1.640617  -19.534699   -5.408315
 101 H     1.0000    0     1.008   -2.936468  -17.213306   -7.464671
 102 H     1.0000    0     1.008   -4.935184  -18.882485   -5.339184
 103 C     6.0000    0    12.011   -3.138374   13.335635   -2.701604
 104 C     6.0000    0    12.011   -3.775703   11.207811   -1.155889
 105 N     7.0000    0    14.007   -4.277022    9.504500    0.080042
 106 H     1.0000    0     1.008   -4.707535   13.771104   -3.960466
 107 H     1.0000    0     1.008   -1.467218   12.894065   -3.818929
 108 H     1.0000    0     1.008   -2.751743   14.965831   -1.506118
 109 C     6.0000    0    12.011    1.310092   10.199934    8.828721
 110 C     6.0000    0    12.011    1.299159    7.501765    8.929111
 111 N     7.0000    0    14.007    1.297553    5.339559    9.012514
 112 H     1.0000    0     1.008    0.492973   10.957363   10.560278
 113 H     1.0000    0     1.008    0.199547   10.831404    7.214556
 114 H     1.0000    0     1.008    3.244391   10.876427    8.631069
 115 C     6.0000    0    12.011    4.209829    5.105952   -1.305426
 116 C     6.0000    0    12.011    3.289022    2.688878   -0.596916
 117 N     7.0000    0    14.007    2.536251    0.739049   -0.046430
 118 H     1.0000    0     1.008    3.299220    5.656388   -3.076507
 119 H     1.0000    0     1.008    6.248235    5.024394   -1.578674
 120 H     1.0000    0     1.008    3.761384    6.485684    0.154055

--------------------------------
INTERNAL COORDINATES (ANGSTROEM)
--------------------------------
 Mg     0   0   0     0.000000000000     0.00000000     0.00000000
 C      1   0   0     4.492607838020     0.00000000     0.00000000
 C      2   1   0     1.417657795846    11.60653902     0.00000000
 N      3   2   1     1.145044380910   179.16496537   142.58539019
 H      2   1   4     1.089269106248   103.61249317   236.93808717
 H      2   1   4     1.093176113805   102.72393295   123.23373284
 H      2   1   4     1.088974781601   121.93546077     0.28907099
 C      5   2   1    11.414141910569   135.80118308    47.04462628
 C      8   5   2     1.432035573326    28.62454499   265.07674916
 N      9   8   5     1.144869330175   179.86138061    59.22054820
 H      8   5   2     1.089409185530   137.21844447   283.00852681
 H      8   5   2     1.089351080226    99.20795371   150.81361223
 H      8   5   2     1.089317779464    89.16596265    41.41389136
 C      4   3   2     7.976352456703   105.94446097    33.58645580
 C     14   4   3     1.425593056732    40.04661105   157.45024464
 N     15  14   4     1.145903150557   179.13512600    28.56164790
 H     14   4   3     1.089172354835   143.10229490   202.42051859
 H     14   4   3     1.089011480701   102.67048876    51.76380072
 H     14   4   3     1.092090426587    74.69653444   304.62994962
 C      1   2   7     4.619039534953    73.24596331   176.09143326
 C     20   1   2     1.418260627583     2.48331999    96.89759213
 N     21  20   1     1.144038294532   179.54653576   302.83448204
 H     20   1   2     1.089260939070   110.97741794    36.72792056
 H     20   1   2     1.092957846611   106.57980118   277.70745658
 H     20   1   2     1.088996262102   111.00732765   158.54707940
 C     25  20   1     9.999060135855   132.58172560   333.68857998
 C     26  25  20     1.432690514990    23.04283052   342.68691444
 N     27  26  25     1.144723361039   179.87724635    54.16603463
 H     26  25  20     1.089408942680   131.64957952     1.38470193
 H     26  25  20     1.089452058568   102.22232015   231.07515196
 H     26  25  20     1.089450065354    92.73483679   120.57275833
 C     16  15  14     3.506974644167   116.48468185   295.42080520
 C     32  16  15     1.426365469897   115.37076613   243.85406870
 N     33  32  16     1.146615488201   179.38439867   262.56666932
 H     32  16  15     1.090053902345   104.11271652     3.80716753
 H     32  16  15     1.090470514810   108.67184014   121.05821067
 H     32  16  15     1.090091094195     6.20716724   222.30640578
 C      1   2   7     4.597673843822   155.64747852   174.75223092
 C     38   1   2     1.418403825929     5.16792736   167.76786309
 N     39  38   1     1.144076579932   179.79093515   197.61956436
 H     38   1   2     1.092889008333   104.02352072   332.62522502
 H     38   1   2     1.089253873347   113.47859372   214.04378866
 H     38   1   2     1.089422449717   110.97520480    90.05573495
 C     42  38   1     6.699484091675   152.47986359    51.48175946
 C     44  42  38     1.432717481350    25.35211947   308.79016279
 N     45  44  42     1.144605767197   179.86684087   128.53867858
 H     44  42  38     1.089419241293   116.24317304    28.98120885
 H     44  42  38     1.089410205772   124.06025958   247.71574059
 H     44  42  38     1.089394101159    84.55519843   137.95593824
 C     41  38   1     4.697442626119   176.72707205   326.09584072
 C     50  41  38     1.429793777542     1.37584155    94.04385803
 N     51  50  41     1.144729911604   179.72019590   209.46351056
 H     50  41  38     1.089560519972   108.18690824   264.97946415
 H     50  41  38     1.089545376055   110.41169240   145.36653080
 H     50  41  38     1.089382317613   109.93505250    24.47155575
 C      6   2   1     4.674128262769   172.51986932   100.89795924
 C     56   6   2     1.429381377950     4.22770557   219.10398068
 N     57  56   6     1.144812373623   179.85036573   112.34246450
 H     56   6   2     1.089546020268   111.14596738   149.63506283
 H     56   6   2     1.089610372078   105.32608408    31.35473857
 H     56   6   2     1.089411681462   112.03925441   272.47747922
 C     28  27  26     5.069624786143   117.56982507   235.78886093
 C     62  28  27     1.432384712350    95.95524164   176.59904710
 N     63  62  28     1.144642273494   179.86473993    18.19407997
 H     62  28  27     1.089320793509    61.64768337   285.55875083
 H     62  28  27     1.089497826982   154.33411319     1.15873666
 H     62  28  27     1.089288672311    57.73257241    67.37136456
 C     12   8   5     6.736172123622   121.11820646   271.73965892
 C     68  12   8     1.432553237878    25.88990481    57.71313429
 N     69  68  12     1.144791300186   179.90218392   160.58064101
 H     68  12   8     1.089357418404    83.92398841   229.12270885
 H     68  12   8     1.089380078955   124.02143201   119.75198088
 H     68  12   8     1.089367657504   116.56899001   337.84250474
 C      1   2   7     4.594054515249    91.69702459   264.95877977
 C     74   1   2     1.418668948190     3.79212638    69.74105908
 N     75  74   1     1.144122452133   179.34418040   191.38634393
 H     74   1   2     1.089286492847   109.39918714   335.96387401
 H     74   1   2     1.089338466470   106.38729150   217.93958268
 H     74   1   2     1.092583759355   113.10261457    98.06938475
 C     16  15  14     3.193499401580   163.29900707    72.91912691
 C     80  16  15     1.418617951958   105.32179429   253.35675299
 N     81  80  16     1.144257903720   178.66383035     7.35485606
 H     80  16  15     1.089155856048   111.77871936    12.70121013
 H     80  16  15     1.089350610404   110.69254069   135.00909582
 H     80  16  15     1.093171670142     4.08927161    65.88432154
 C     35  32  16     4.766470222825   159.05539138   315.85960820
 C     86  35  32     1.430869445620    11.39924649   154.54574145
 N     87  86  35     1.144666925047   179.88195173   263.74149061
 H     86  35  32     1.089532259047    98.15863286   330.30360968
 H     86  35  32     1.089453206048   115.65944985   214.16215389
 H     86  35  32     1.089553520217   114.07488684    85.93734504
 C     19  14   4     4.389120169350   136.36284851   347.61088445
 C     92  19  14     1.429803077225    22.63914356   186.41553247
 N     93  92  19     1.145718482347   179.75919829     7.40077935
 H     92  19  14     1.088990136260    90.21453026   334.81276754
 H     92  19  14     1.089247642139   129.30146453   218.87468775
 H     92  19  14     1.088750304608   106.26979358    85.35740212
 C     79  74   1     4.719347310683   172.95281988   172.13109520
 C     98  79  74     1.429831789088     3.04790224   156.93151235
 N     99  98  79     1.144788321327   179.79579153   189.45308110
 H     98  79  74     1.089542164631   107.04282386   302.74091511
 H     98  79  74     1.089607968046   112.31127094   182.64097822
 H     98  79  74     1.089612220833   109.27672660    61.02357375
 C     10   9   8     5.048240396738    96.92544165   298.31073501
 C    104  10   9     1.432014888701    94.76967968   188.10418100
 N    105 104  10     1.144798994111   179.77508142   326.55101025
 H    104  10   9     1.089209827700   155.45436036     2.20571367
 H    104  10   9     1.089149135175    62.59530854    78.67141165
 H    104  10   9     1.089154934046    57.75072273   298.29470631
 C     24  20   1     4.686979043679   173.11277892    54.03043826
 C    110  24  20     1.428809565407     3.65591251   219.43710121
 N    111 110  24     1.145040971472   179.79502598   197.69978839
 H    110  24  20     1.089600678615   108.25282137   107.98247317
 H    110  24  20     1.089333254806   107.12262121   350.08176120
 H    110  24  20     1.089413684102   113.21909628   229.49713227
 C     34  33  32     3.221191811899   113.26840897   342.91455643
 C    116  34  33     1.419153910909    89.07452669     2.71209688
 N    117 116  34     1.143748962060   179.38495284     7.53384235
 H    116  34  33     1.093351788922    19.32996862   185.78789980
 H    116  34  33     1.089181760419   116.99506885   114.59573412
 H    116  34  33     1.088980455729   119.04434958   250.23112531

---------------------------
INTERNAL COORDINATES (A.U.)
---------------------------
 Mg     0   0   0     0.000000000000     0.00000000     0.00000000
 C      1   0   0     8.489798440966     0.00000000     0.00000000
 C      2   1   0     2.678984985767    11.60653902     0.00000000
 N      3   2   1     2.163820291104   179.16496537   142.58539019
 H      2   1   4     2.058420296949   103.61249317   236.93808717
 H      2   1   4     2.065803471236   102.72393295   123.23373284
 H      2   1   4     2.057864103972   121.93546077     0.28907099
 C      5   2   1    21.569602264688   135.80118308    47.04462628
 C      8   5   2     2.706155047618    28.62454499   265.07674916
 N      9   8   5     2.163489493157   179.86138061    59.22054820
 H      8   5   2     2.058685008429   137.21844447   283.00852681
 H      8   5   2     2.058575205319    99.20795371   150.81361223
 H      8   5   2     2.058512275998    89.16596265    41.41389136
 C      4   3   2    15.073121690799   105.94446097    33.58645580
 C     14   4   3     2.693980455644    40.04661105   157.45024464
 N     15  14   4     2.165443130550   179.13512600    28.56164790
 H     14   4   3     2.058237463276   143.10229490   202.42051859
 H     14   4   3     2.057933455222   102.67048876    51.76380072
 H     14   4   3     2.063751819726    74.69653444   304.62994962
 C      1   2   7     8.728719722817    73.24596331   176.09143326
 C     20   1   2     2.680124172656     2.48331999    96.89759213
 N     21  20   1     2.161919063383   179.54653576   302.83448204
 H     20   1   2     2.058404863220   110.97741794    36.72792056
 H     20   1   2     2.065391006014   106.57980118   277.70745658
 H     20   1   2     2.057904696236   111.00732765   158.54707940
 C     25  20   1    18.895485253375   132.58172560   333.68857998
 C     26  25  20     2.707392707998    23.04283052   342.68691444
 N     27  26  25     2.163213651465   179.87724635    54.16603463
 H     26  25  20     2.058684549510   131.64957952     1.38470193
 H     26  25  20     2.058766026731   102.22232015   231.07515196
 H     26  25  20     2.058762260101    92.73483679   120.57275833
 C     16  15  14     6.627221636081   116.48468185   295.42080520
 C     32  16  15     2.695440104987   115.37076613   243.85406870
 N     33  32  16     2.166789253613   179.38439867   262.56666932
 H     32  16  15     2.059903346644   104.11271652     3.80716753
 H     32  16  15     2.060690630107   108.67184014   121.05821067
 H     32  16  15     2.059973629054     6.20716724   222.30640578
 C      1   2   7     8.688344417917   155.64747852   174.75223092
 C     38   1   2     2.680394778312     5.16792736   167.76786309
 N     39  38   1     2.161991412305   179.79093515   197.61956436
 H     38   1   2     2.065260920521   104.02352072   332.62522502
 H     38   1   2     2.058391510938   113.47859372   214.04378866
 H     38   1   2     2.058710074111   110.97520480    90.05573495
 C     42  38   1    12.660190171828   152.47986359    51.48175946
 C     44  42  38     2.707443667033    25.35211947   308.79016279
 N     45  44  42     2.162991431310   179.86684087   128.53867858
 H     44  42  38     2.058704011068   116.24317304    28.98120885
 H     44  42  38     2.058686936408   124.06025958   247.71574059
 H     44  42  38     2.058656503100    84.55519843   137.95593824
 C     41  38   1     8.876880093173   176.72707205   326.09584072
 C     50  41  38     2.701918667539     1.37584155    94.04385803
 N     51  50  41     2.163226030239   179.72019590   209.46351056
 H     50  41  38     2.058970989079   108.18690824   264.97946415
 H     50  41  38     2.058942371225   110.41169240   145.36653080
 H     50  41  38     2.058634235425   109.93505250    24.47155575
 C      6   2   1     8.832822331454   172.51986932   100.89795924
 C     56   6   2     2.701139345253     4.22770557   219.10398068
 N     57  56   6     2.163381860872   179.85036573   112.34246450
 H     56   6   2     2.058943588610   111.14596738   149.63506283
 H     56   6   2     2.059065195907   105.32608408    31.35473857
 H     56   6   2     2.058689725058   112.03925441   272.47747922
 C     28  27  26     9.580202447549   117.56982507   235.78886093
 C     62  28  27     2.706814824758    95.95524164   176.59904710
 N     63  62  28     2.163060418214   179.86473993    18.19407997
 H     62  28  27     2.058517971717    61.64768337   285.55875083
 H     62  28  27     2.058852516499   154.33411319     1.15873666
 H     62  28  27     2.058457271451    57.73257241    67.37136456
 C     12   8   5    12.729520504600   121.11820646   271.73965892
 C     68  12   8     2.707133291851    25.88990481    57.71313429
 N     69  68  12     2.163342037847   179.90218392   160.58064101
 H     68  12   8     2.058587182739    83.92398841   229.12270885
 H     68  12   8     2.058630004974   124.02143201   119.75198088
 H     68  12   8     2.058606531834   116.56899001   337.84250474
 C      1   2   7     8.681504878124    91.69702459   264.95877977
 C     74   1   2     2.680895786777     3.79212638    69.74105908
 N     75  74   1     2.162078098202   179.34418040   191.38634393
 H     74   1   2     2.058453152861   109.39918714   335.96387401
 H     74   1   2     2.058551368775   106.38729150   217.93958268
 H     74   1   2     2.064684083550   113.10261457    98.06938475
 C     16  15  14     6.034839277828   163.29900707    72.91912691
 C     80  16  15     2.680799417866   105.32179429   253.35675299
 N     81  80  16     2.162334064606   178.66383035     7.35485606
 H     80  16  15     2.058206285086   111.77871936    12.70121013
 H     80  16  15     2.058574317484   110.69254069   135.00909582
 H     80  16  15     2.065795073931     4.08927161    65.88432154
 C     35  32  16     9.007323346630   159.05539138   315.85960820
 C     86  35  32     2.703951385618    11.39924649   154.54574145
 N     87  86  35     2.163107002896   179.88195173   263.74149061
 H     86  35  32     2.058917583671    98.15863286   330.30360968
 H     86  35  32     2.058768195153   115.65944985   214.16215389
 H     86  35  32     2.058957761461   114.07488684    85.93734504
 C     19  14   4     8.294235088942   136.36284851   347.61088445
 C     92  19  14     2.701936241393    22.63914356   186.41553247
 N     93  92  19     2.165094158208   179.75919829     7.40077935
 H     92  19  14     2.057893120074    90.21453026   334.81276754
 H     92  19  14     2.058379735663   129.30146453   218.87468775
 H     92  19  14     2.057439903933   106.26979358    85.35740212
 C     79  74   1     8.918273948049   172.95281988   172.13109520
 C     98  79  74     2.701990498951     3.04790224   156.93151235
 N     99  98  79     2.163336408619   179.79579153   189.45308110
 H     98  79  74     2.058936302512   107.04282386   302.74091511
 H     98  79  74     2.059060652946   112.31127094   182.64097822
 H     98  79  74     2.059068689547   109.27672660    61.02357375
 C     10   9   8     9.539791808033    96.92544165   298.31073501
 C    104  10   9     2.706115959342    94.76967968   188.10418100
 N    105 104  10     2.163356577258   179.77508142   326.55101025
 H    104  10   9     2.058308276728   155.45436036     2.20571367
 H    104  10   9     2.058193584477    62.59530854    78.67141165
 H    104  10   9     2.058204542756    57.75072273   298.29470631
 C     24  20   1     8.857106787981   173.11277892    54.03043826
 C    110  24  20     2.700058776146     3.65591251   219.43710121
 N    111 110  24     2.163813848200   179.79502598   197.69978839
 H    110  24  20     2.059046877917   108.25282137   107.98247317
 H    110  24  20     2.058541520157   107.12262121   350.08176120
 H    110  24  20     2.058693509499   113.21909628   229.49713227
 C     34  33  32     6.087170349319   113.26840897   342.91455643
 C    116  34  33     2.681812233501    89.07452669     2.71209688
 N    117 116  34     2.161372304249   179.38495284     7.53384235
 H    116  34  33     2.066135449095    19.32996862   185.78789980
 H    116  34  33     2.058255237254   116.99506885   114.59573412
 H    116  34  33     2.057874826520   119.04434958   250.23112531

---------------------
BASIS SET INFORMATION
---------------------
There are 4 groups of distinct atoms

 Group   1 Type Mg  : 14s7p contracted to 5s3p pattern {73211/511}
 Group   2 Type C   : 11s6p1d contracted to 5s3p1d pattern {62111/411/1}
 Group   3 Type N   : 11s6p2d contracted to 5s3p2d pattern {62111/411/11}
 Group   4 Type H   : 4s1p contracted to 2s1p pattern {31/1}

Atom   0Mg   basis set group =>   1
Atom   1C    basis set group =>   2
Atom   2C    basis set group =>   2
Atom   3N    basis set group =>   3
Atom   4H    basis set group =>   4
Atom   5H    basis set group =>   4
Atom   6H    basis set group =>   4
Atom   7C    basis set group =>   2
Atom   8C    basis set group =>   2
Atom   9N    basis set group =>   3
Atom  10H    basis set group =>   4
Atom  11H    basis set group =>   4
Atom  12H    basis set group =>   4
Atom  13C    basis set group =>   2
Atom  14C    basis set group =>   2
Atom  15N    basis set group =>   3
Atom  16H    basis set group =>   4
Atom  17H    basis set group =>   4
Atom  18H    basis set group =>   4
Atom  19C    basis set group =>   2
Atom  20C    basis set group =>   2
Atom  21N    basis set group =>   3
Atom  22H    basis set group =>   4
Atom  23H    basis set group =>   4
Atom  24H    basis set group =>   4
Atom  25C    basis set group =>   2
Atom  26C    basis set group =>   2
Atom  27N    basis set group =>   3
Atom  28H    basis set group =>   4
Atom  29H    basis set group =>   4
Atom  30H    basis set group =>   4
Atom  31C    basis set group =>   2
Atom  32C    basis set group =>   2
Atom  33N    basis set group =>   3
Atom  34H    basis set group =>   4
Atom  35H    basis set group =>   4
Atom  36H    basis set group =>   4
Atom  37C    basis set group =>   2
Atom  38C    basis set group =>   2
Atom  39N    basis set group =>   3
Atom  40H    basis set group =>   4
Atom  41H    basis set group =>   4
Atom  42H    basis set group =>   4
Atom  43C    basis set group =>   2
Atom  44C    basis set group =>   2
Atom  45N    basis set group =>   3
Atom  46H    basis set group =>   4
Atom  47H    basis set group =>   4
Atom  48H    basis set group =>   4
Atom  49C    basis set group =>   2
Atom  50C    basis set group =>   2
Atom  51N    basis set group =>   3
Atom  52H    basis set group =>   4
Atom  53H    basis set group =>   4
Atom  54H    basis set group =>   4
Atom  55C    basis set group =>   2
Atom  56C    basis set group =>   2
Atom  57N    basis set group =>   3
Atom  58H    basis set group =>   4
Atom  59H    basis set group =>   4
Atom  60H    basis set group =>   4
Atom  61C    basis set group =>   2
Atom  62C    basis set group =>   2
Atom  63N    basis set group =>   3
Atom  64H    basis set group =>   4
Atom  65H    basis set group =>   4
Atom  66H    basis set group =>   4
Atom  67C    basis set group =>   2
Atom  68C    basis set group =>   2
Atom  69N    basis set group =>   3
Atom  70H    basis set group =>   4
Atom  71H    basis set group =>   4
Atom  72H    basis set group =>   4
Atom  73C    basis set group =>   2
Atom  74C    basis set group =>   2
Atom  75N    basis set group =>   3
Atom  76H    basis set group =>   4
Atom  77H    basis set group =>   4
Atom  78H    basis set group =>   4
Atom  79C    basis set group =>   2
Atom  80C    basis set group =>   2
Atom  81N    basis set group =>   3
Atom  82H    basis set group =>   4
Atom  83H    basis set group =>   4
Atom  84H    basis set group =>   4
Atom  85C    basis set group =>   2
Atom  86C    basis set group =>   2
Atom  87N    basis set group =>   3
Atom  88H    basis set group =>   4
Atom  89H    basis set group =>   4
Atom  90H    basis set group =>   4
Atom  91C    basis set group =>   2
Atom  92C    basis set group =>   2
Atom  93N    basis set group =>   3
Atom  94H    basis set group =>   4
Atom  95H    basis set group =>   4
Atom  96H    basis set group =>   4
Atom  97C    basis set group =>   2
Atom  98C    basis set group =>   2
Atom  99N    basis set group =>   3
Atom 100H    basis set group =>   4
Atom 101H    basis set group =>   4
Atom 102H    basis set group =>   4
Atom 103C    basis set group =>   2
Atom 104C    basis set group =>   2
Atom 105N    basis set group =>   3
Atom 106H    basis set group =>   4
Atom 107H    basis set group =>   4
Atom 108H    basis set group =>   4
Atom 109C    basis set group =>   2
Atom 110C    basis set group =>   2
Atom 111N    basis set group =>   3
Atom 112H    basis set group =>   4
Atom 113H    basis set group =>   4
Atom 114H    basis set group =>   4
Atom 115C    basis set group =>   2
Atom 116C    basis set group =>   2
Atom 117N    basis set group =>   3
Atom 118H    basis set group =>   4
Atom 119H    basis set group =>   4
Atom 120H    basis set group =>   4
---------------------------------
AUXILIARY/J BASIS SET INFORMATION
---------------------------------
There are 4 groups of distinct atoms

 Group   1 Type Mg  : 14s5p5d2f1g contracted to 8s4p4d1f1g pattern {71111111/2111/2111/2/1}
 Group   2 Type C   : 12s5p4d2f1g contracted to 6s4p3d1f1g pattern {711111/2111/211/2/1}
 Group   3 Type N   : 12s5p4d2f1g contracted to 6s4p3d1f1g pattern {711111/2111/211/2/1}
 Group   4 Type H   : 5s2p1d contracted to 3s1p1d pattern {311/2/1}

Atom   0Mg   basis set group =>   1
Atom   1C    basis set group =>   2
Atom   2C    basis set group =>   2
Atom   3N    basis set group =>   3
Atom   4H    basis set group =>   4
Atom   5H    basis set group =>   4
Atom   6H    basis set group =>   4
Atom   7C    basis set group =>   2
Atom   8C    basis set group =>   2
Atom   9N    basis set group =>   3
Atom  10H    basis set group =>   4
Atom  11H    basis set group =>   4
Atom  12H    basis set group =>   4
Atom  13C    basis set group =>   2
Atom  14C    basis set group =>   2
Atom  15N    basis set group =>   3
Atom  16H    basis set group =>   4
Atom  17H    basis set group =>   4
Atom  18H    basis set group =>   4
Atom  19C    basis set group =>   2
Atom  20C    basis set group =>   2
Atom  21N    basis set group =>   3
Atom  22H    basis set group =>   4
Atom  23H    basis set group =>   4
Atom  24H    basis set group =>   4
Atom  25C    basis set group =>   2
Atom  26C    basis set group =>   2
Atom  27N    basis set group =>   3
Atom  28H    basis set group =>   4
Atom  29H    basis set group =>   4
Atom  30H    basis set group =>   4
Atom  31C    basis set group =>   2
Atom  32C    basis set group =>   2
Atom  33N    basis set group =>   3
Atom  34H    basis set group =>   4
Atom  35H    basis set group =>   4
Atom  36H    basis set group =>   4
Atom  37C    basis set group =>   2
Atom  38C    basis set group =>   2
Atom  39N    basis set group =>   3
Atom  40H    basis set group =>   4
Atom  41H    basis set group =>   4
Atom  42H    basis set group =>   4
Atom  43C    basis set group =>   2
Atom  44C    basis set group =>   2
Atom  45N    basis set group =>   3
Atom  46H    basis set group =>   4
Atom  47H    basis set group =>   4
Atom  48H    basis set group =>   4
Atom  49C    basis set group =>   2
Atom  50C    basis set group =>   2
Atom  51N    basis set group =>   3
Atom  52H    basis set group =>   4
Atom  53H    basis set group =>   4
Atom  54H    basis set group =>   4
Atom  55C    basis set group =>   2
Atom  56C    basis set group =>   2
Atom  57N    basis set group =>   3
Atom  58H    basis set group =>   4
Atom  59H    basis set group =>   4
Atom  60H    basis set group =>   4
Atom  61C    basis set group =>   2
Atom  62C    basis set group =>   2
Atom  63N    basis set group =>   3
Atom  64H    basis set group =>   4
Atom  65H    basis set group =>   4
Atom  66H    basis set group =>   4
Atom  67C    basis set group =>   2
Atom  68C    basis set group =>   2
Atom  69N    basis set group =>   3
Atom  70H    basis set group =>   4
Atom  71H    basis set group =>   4
Atom  72H    basis set group =>   4
Atom  73C    basis set group =>   2
Atom  74C    basis set group =>   2
Atom  75N    basis set group =>   3
Atom  76H    basis set group =>   4
Atom  77H    basis set group =>   4
Atom  78H    basis set group =>   4
Atom  79C    basis set group =>   2
Atom  80C    basis set group =>   2
Atom  81N    basis set group =>   3
Atom  82H    basis set group =>   4
Atom  83H    basis set group =>   4
Atom  84H    basis set group =>   4
Atom  85C    basis set group =>   2
Atom  86C    basis set group =>   2
Atom  87N    basis set group =>   3
Atom  88H    basis set group =>   4
Atom  89H    basis set group =>   4
Atom  90H    basis set group =>   4
Atom  91C    basis set group =>   2
Atom  92C    basis set group =>   2
Atom  93N    basis set group =>   3
Atom  94H    basis set group =>   4
Atom  95H    basis set group =>   4
Atom  96H    basis set group =>   4
Atom  97C    basis set group =>   2
Atom  98C    basis set group =>   2
Atom  99N    basis set group =>   3
Atom 100H    basis set group =>   4
Atom 101H    basis set group =>   4
Atom 102H    basis set group =>   4
Atom 103C    basis set group =>   2
Atom 104C    basis set group =>   2
Atom 105N    basis set group =>   3
Atom 106H    basis set group =>   4
Atom 107H    basis set group =>   4
Atom 108H    basis set group =>   4
Atom 109C    basis set group =>   2
Atom 110C    basis set group =>   2
Atom 111N    basis set group =>   3
Atom 112H    basis set group =>   4
Atom 113H    basis set group =>   4
Atom 114H    basis set group =>   4
Atom 115C    basis set group =>   2
Atom 116C    basis set group =>   2
Atom 117N    basis set group =>   3
Atom 118H    basis set group =>   4
Atom 119H    basis set group =>   4
Atom 120H    basis set group =>   4


           ************************************************************
           *        Program running with 8 parallel MPI-processes     *
           *            working on distributed directories            *
           ************************************************************
------------------------------------------------------------------------------
                           ORCA GTO INTEGRAL CALCULATION
                           -- RI-GTO INTEGRALS CHOSEN --
------------------------------------------------------------------------------
------------------------------------------------------------------------------
                   ___                                                        
                  /   \      - P O W E R E D   B Y -                         
                 /     \                                                     
                 |  |  |   _    _      __       _____    __    __             
                 |  |  |  | |  | |    /  \     |  _  \  |  |  /  |          
                  \  \/   | |  | |   /    \    | | | |  |  | /  /          
                 / \  \   | |__| |  /  /\  \   | |_| |  |  |/  /          
                |  |  |   |  __  | /  /__\  \  |    /   |      \           
                |  |  |   | |  | | |   __   |  |    \   |  |\   \          
                \     /   | |  | | |  |  |  |  | |\  \  |  | \   \       
                 \___/    |_|  |_| |__|  |__|  |_| \__\ |__|  \__/        
                                                                              
                      - O R C A' S   B I G   F R I E N D -                    
                                      &                                       
                       - I N T E G R A L  F E E D E R -                       
                                                                              
 v1 FN, 2020, v2 2021                                                         
------------------------------------------------------------------------------


Reading SHARK input file ORCA.SHARKINP.tmp ... ok
----------------------
SHARK INTEGRAL PACKAGE
----------------------

Number of atoms                             ...    121
Number of basis functions                   ...   1554
Number of shells                            ...    748
Maximum angular momentum                    ...      2
Integral batch strategy                     ... SHARK/LIBINT Hybrid
RI-J (if used) integral strategy            ... SPLIT-RIJ (Revised 2003 algorithm where possible)
Printlevel                                  ...      1
Contraction scheme used                     ... SEGMENTED contraction
Coulomb Range Separation                    ... NOT USED
Exchange Range Separation                   ... NOT USED
Finite Nucleus Model                        ... NOT USED
Auxiliary Coulomb fitting basis             ... AVAILABLE
   # of basis functions in Aux-J            ...   3656
   # of shells in Aux-J                     ...   1218
   Maximum angular momentum in Aux-J        ...      4
Auxiliary J/K fitting basis                 ... NOT available
Auxiliary Correlation fitting basis         ... NOT available
Auxiliary 'external' fitting basis          ... NOT available
Integral threshold                          ...     2.500000e-11
Primitive cut-off                           ...     2.500000e-12
Primitive pair pre-selection threshold      ...     2.500000e-12

Calculating pre-screening integrals         ... done (  0.2 sec) Dimension = 748
Organizing shell pair data                  ... done (  0.7 sec)
Shell pair information
Total number of shell pairs                 ...    280126
Shell pairs after pre-screening             ...     76051
Total number of primitive shell pairs       ...   1011866
Primitive shell pairs kept                  ...    149768
          la=0 lb=0:  22802 shell pairs
          la=1 lb=0:  29012 shell pairs
          la=1 lb=1:   9423 shell pairs
          la=2 lb=0:   8434 shell pairs
          la=2 lb=1:   5570 shell pairs
          la=2 lb=2:    810 shell pairs

Calculating one electron integrals          ... done (  0.3 sec)
Calculating RI/J V-Matrix + Cholesky decomp.... done (  1.5 sec)
Calculating Nuclear repulsion               ... done (  0.0 sec) ENN=   7437.594638372875 Eh

SHARK setup successfully completed in   4.2 seconds

Maximum memory used throughout the entire GTOINT-calculation: 324.6 MB


           ************************************************************
           *        Program running with 8 parallel MPI-processes     *
           *            working on distributed directories            *
           ************************************************************
-------------------------------------------------------------------------------
                                 ORCA SCF
-------------------------------------------------------------------------------

------------
SCF SETTINGS
------------
Hamiltonian:
 Density Functional     Method          .... DFT(GTOs)
  Functional kind                       .... Exchange
  Functional name                       .... Re-regularized SCAN exchange by Furness et al
  Functional family                     .... MGGA
  Functional refs                              
    [ 0] J. W. Furness, A. D. Kaplan, J. Ning, J. P. Perdew, and J. Sun, J. Phys. Chem. Lett. 11, 8208 (2020)
    [ 1] J. W. Furness, A. D. Kaplan, J. Ning, J. P. Perdew, and J. Sun, J. Phys. Chem. Lett. 11, 9248 (2020)
  Functional external parameters         .... 8
 Parameter  0 :         c1 parameter
 Parameter  1 :         c2 parameter
 Parameter  2 :          d parameter
 Parameter  3 :         k1 parameter
 Parameter  4 :       taur parameter
 Parameter  5 :     alphar parameter
 Parameter  6 :        eta parameter
 Parameter  7 :        dp2 parameter
  Functional kind                       .... Correlation
  Functional name                       .... Re-regularized SCAN correlation by Furness et al
  Functional family                     .... MGGA
  Functional refs                              
    [ 0] J. W. Furness, A. D. Kaplan, J. Ning, J. P. Perdew, and J. Sun, J. Phys. Chem. Lett. 11, 8208 (2020)
    [ 1] J. W. Furness, A. D. Kaplan, J. Ning, J. P. Perdew, and J. Sun, J. Phys. Chem. Lett. 11, 9248 (2020)
  Functional external parameters         .... 0
 Gradients option       PostSCFGGA      .... off
   Density functional embedding theory  .... OFF
 RI-approximation to the Coulomb term is turned on
   Number of AuxJ basis functions       .... 3656


General Settings:
 Integral files         IntName         .... ORCA
 Hartree-Fock type      HFTyp           .... RHF
 Total Charge           Charge          ....    2
 Multiplicity           Mult            ....    1
 Number of Electrons    NEL             ....  450
 Basis Dimension        Dim             .... 1554
 Nuclear Repulsion      ENuc            ....   7437.5946383729 Eh

Convergence Acceleration:
 DIIS                   CNVDIIS         .... on
   Start iteration      DIISMaxIt       ....    12
   Startup error        DIISStart       ....  0.200000
   # of expansion vecs  DIISMaxEq       ....     5
   Bias factor          DIISBfac        ....   1.050
   Max. coefficient     DIISMaxC        ....  10.000
 Trust-Rad. Augm. Hess. CNVTRAH         .... auto
   Auto Start mean grad. ratio tolernc. ....  1.125000
   Auto Start start iteration           ....    20
   Auto Start num. interpolation iter.  ....    10
   Max. Number of Micro iterations      ....    16
   Max. Number of Macro iterations      .... Maxiter - #DIIS iter
   Number of Davidson start vectors     ....     2
   Converg. threshold I  (grad. norm)   ....   1.000e-05
   Converg. threshold II (energy diff.) ....   1.000e-08
   Grad. Scal. Fac. for Micro threshold ....   0.100
   Minimum threshold for Micro iter.    ....   0.010
   NR start threshold (gradient norm)   ....   0.001
   Initial trust radius                 ....   0.400
   Minimum AH scaling param. (alpha)    ....   1.000
   Maximum AH scaling param. (alpha)    .... 1000.000
   Orbital update algorithm             .... Taylor
   White noise on init. David. guess    .... on
   Maximum white noise                  ....   0.010
   Quad. conv. algorithm                .... NR
   COSX micro iterations for RIJONX calc.... off
 SOSCF                  CNVSOSCF        .... on
   Start iteration      SOSCFMaxIt      ....   150
   Startup grad/error   SOSCFStart      ....  0.003300
 Level Shifting         CNVShift        .... on
   Level shift para.    LevelShift      ....    0.2500
   Turn off err/grad.   ShiftErr        ....    0.0010
 Zerner damping         CNVZerner       .... off
 Static damping         CNVDamp         .... on
   Fraction old density DampFac         ....    0.7000
   Max. Damping (<1)    DampMax         ....    0.9800
   Min. Damping (>=0)   DampMin         ....    0.0000
   Turn off err/grad.   DampErr         ....    0.1000
 Fernandez-Rico         CNVRico         .... off

SCF Procedure:
 Maximum # iterations   MaxIter         ....   125
 SCF integral mode      SCFMode         .... Direct
   Integral package                     .... SHARK and LIBINT hybrid scheme
 Reset frequency        DirectResetFreq ....    20
 Integral Threshold     Thresh          ....  2.500e-11 Eh
 Primitive CutOff       TCut            ....  2.500e-12 Eh

Convergence Tolerance:
 Convergence Check Mode ConvCheckMode   .... Total+1el-Energy
 Convergence forced     ConvForced      .... 0
 Energy Change          TolE            ....  1.000e-08 Eh
 1-El. energy change                    ....  1.000e-05 Eh
 Orbital Gradient       TolG            ....  1.000e-05
 Orbital Rotation angle TolX            ....  1.000e-05
 DIIS Error             TolErr          ....  5.000e-07


Diagonalization of the overlap matrix:
Smallest eigenvalue                        ... 6.260e-05
Time for diagonalization                   ...    3.020 sec
Threshold for overlap eigenvalues          ... 1.000e-08
Number of eigenvalues below threshold      ... 0
Time for construction of square roots      ...    0.559 sec
Total time needed                          ...    3.590 sec

Time for model grid setup =    2.397 sec

------------------------------
INITIAL GUESS: MODEL POTENTIAL
------------------------------
Loading Hartree-Fock densities                     ... done
Calculating cut-offs                               ... done
Initializing the effective Hamiltonian             ... done
Setting up the integral package (SHARK)            ... done
Starting the Coulomb interaction                   ... done (   2.6 sec)
Reading the grid                                   ... done
Mapping shells                                     ... done
Starting the XC term evaluation                    ... done (   0.6 sec)
  promolecular density results
     # of electrons  =    451.978012746
     EX              =   -367.821169166
     EC              =    -14.443515534
     EX+EC           =   -382.264684699
Transforming the Hamiltonian                       ... done (   0.3 sec)
Diagonalizing the Hamiltonian                      ... done (   2.8 sec)
Back transforming the eigenvectors                 ... done (   1.0 sec)
Now organizing SCF variables                       ... done
                      ------------------
                      INITIAL GUESS DONE (   9.7 sec)
                      ------------------
-------------------
DFT GRID GENERATION
-------------------

General Integration Accuracy     IntAcc      ... 4.959
Radial Grid Type                 RadialGrid  ... OptM3 with GC (2021)
Angular Grid (max. ang.)         AngularGrid ... 6 (Lebedev-590)
Angular grid pruning method      GridPruning ... 4 (adaptive)
Weight generation scheme         WeightScheme... Becke
Basis function cutoff            BFCut       ... 1.0000e-11
Integration weight cutoff        WCut        ... 1.0000e-14
Angular grids for H and He will be reduced by one unit
Partially contracted basis set               ... off
Rotationally invariant grid construction     ... off

Total number of grid points                  ...  1397929
Total number of batches                      ...    21902
Average number of points per batch           ...       63
Average number of grid points per atom       ...    11553
Time for grid setup =   27.310 sec


--------------------
CPCM SOLVATION MODEL
--------------------
CPCM parameters:
  Epsilon                                         ...      35.6880
  Refrac                                          ...       1.3442
  Rsolv                                           ...       1.3000
  Surface type                                    ... GAUSSIAN VDW
  Epsilon function type                           ...         CPCM
Solvent:                                     ... MECN
SMD-CDS solvent descriptors:
  Soln                                       ...    1.3442
  Soln25                                     ...    1.3416
  Sola                                       ...    0.0700
  Solb                                       ...    0.3200
  Solg                                       ...   41.2500
  Solc                                       ...    0.0000
  Solh                                       ...    0.0000
Radii:
 Radius for Mg used is    3.2692 Bohr (=   1.7300 Ang.)
 Radius for C  used is    3.4960 Bohr (=   1.8500 Ang.)
 Radius for N  used is    3.5716 Bohr (=   1.8900 Ang.)
 Radius for H  used is    2.2677 Bohr (=   1.2000 Ang.)
Calculating surface                               ...        done! (  0.0s)
GEPOL surface points                              ...         8198
GEPOL Volume                                      ...    7437.3372
GEPOL Surface-area                                ...    4935.2598
Calculating surface distance matrix               ...        done! (  0.8s)
Performing Cholesky decomposition & store         ...        done! ( 28.1s)
Overall time for CPCM initialization              ...                28.9s
--------------
SCF ITERATIONS
--------------
ITER       Energy         Delta-E        Max-DP      RMS-DP      [F,P]     Damp
               ***  Starting incremental Fock matrix formation  ***
  0  -2852.3834997982   0.000000000000 0.06934898  0.00054869  0.2769978 0.7000
  1  -2853.4445109856  -1.061011187359 0.04564581  0.00036861  0.0976905 0.7000
                               ***Turning on DIIS***
  2  -2853.7828292182  -0.338318232593 0.09179512  0.00058707  0.0447482 0.0000
  3  -2854.4056084450  -0.622779226776 0.02418534  0.00031072  0.0461806 0.0000
  4  -2854.5074987532  -0.101890308202 0.00972181  0.00011638  0.0354593 0.0000
  5  -2854.5315346764  -0.024035923262 0.00311996  0.00003529  0.0067906 0.0000
  6  -2854.5326495329  -0.001114856448 0.00139284  0.00001247  0.0045695 0.0000
                      *** Initiating the SOSCF procedure ***
                           *** Shutting down DIIS ***
                      *** Re-Reading the Fockian *** 
                      *** Removing any level shift *** 
ITER      Energy       Delta-E        Grad      Rot      Max-DP    RMS-DP
  7  -2854.53279207  -0.0001425349  0.000142  0.000142  0.000548  0.000004
               *** Restarting incremental Fock matrix formation ***
  8  -2854.53281015  -0.0000180873  0.000136  0.000446  0.000341  0.000003
  9  -2854.53280214   0.0000080193  0.000413  0.000363  0.000282  0.000002
 10  -2854.53281180  -0.0000096667  0.000037  0.000066  0.000185  0.000001
 11  -2854.53281140   0.0000004067  0.000037  0.000035  0.000124  0.000001
 12  -2854.53281220  -0.0000008081  0.000012  0.000034  0.000038  0.000000
 13  -2854.53281202   0.0000001864  0.000028  0.000024  0.000022  0.000000
                  ***Gradient check signals convergence***
              ***Rediagonalizing the Fockian in SOSCF/NRSCF***

               *****************************************************
               *                     SUCCESS                       *
               *           SCF CONVERGED AFTER  14 CYCLES          *
               *****************************************************


SMD CDS free energy correction energy :                13.04601     Kcal/mol
Total Energy after SMD CDS correction =             -2854.512021894 Eh

----------------
TOTAL SCF ENERGY
----------------

Total Energy       :        -2854.51202189 Eh          -77675.22105 eV

Components:
Nuclear Repulsion  :         7437.59463837 Eh          202387.23928 eV
Electronic Energy  :       -10292.10666027 Eh         -280062.46033 eV
One Electron Energy:       -18639.29417842 Eh         -507200.98019 eV
Two Electron Energy:         8347.18751815 Eh          227138.51987 eV
CPCM Dielectric    :           -0.27371697 Eh              -7.44822 eV
SMD CDS (Gcds)     :            0.02079015 Eh               0.56573 eV

Virial components:
Potential Energy   :        -5698.43507416 Eh         -155062.30158 eV
Kinetic Energy     :         2843.92305226 Eh           77387.08054 eV
Virial Ratio       :            2.00372337


DFT components:
N(Alpha)           :      225.000066407320 electrons
N(Beta)            :      225.000066407320 electrons
N(Total)           :      450.000132814641 electrons
E(X)               :     -377.373905199154 Eh       
E(C)               :      -14.181827444453 Eh       
E(XC)              :     -391.555732643606 Eh       
DFET-embed. en.    :        0.000000000000 Eh       
CPCM Solvation Model Properties:
Surface-charge          :           -2.07968939
Charge-correction       :            0.00806046 Eh               0.21934 eV
Free-energy (cav+disp)  :            0.02079015 Eh               0.56573 eV

---------------
SCF CONVERGENCE
---------------

  Last Energy change         ...   -2.2306e-08  Tolerance :   1.0000e-08
  Last MAX-Density change    ...    6.6515e-05  Tolerance :   1.0000e-07
  Last RMS-Density change    ...    2.3881e-07  Tolerance :   5.0000e-09
  Last Orbital Gradient      ...    6.0464e-07  Tolerance :   1.0000e-05
  Last Orbital Rotation      ...    4.1951e-07  Tolerance :   1.0000e-05

             **** THE GBW FILE WAS UPDATED (ORCA.gbw) ****
             **** DENSITY ORCA.scfp WAS UPDATED ****
             **** ENERGY FILE WAS UPDATED (ORCA.en.tmp) ****
             **** THE GBW FILE WAS UPDATED (ORCA.gbw) ****
             **** DENSITY ORCA.scfp WAS UPDATED ****
----------------
ORBITAL ENERGIES
----------------

  NO   OCC          E(Eh)            E(eV) 
   0   2.0000     -46.508421     -1265.5585 
   1   2.0000     -14.179594      -385.8464 
   2   2.0000     -14.177993      -385.8028 
   3   2.0000     -14.177854      -385.7990 
   4   2.0000     -14.177660      -385.7937 
   5   2.0000     -14.177558      -385.7910 
   6   2.0000     -14.177016      -385.7762 
   7   2.0000     -14.161218      -385.3463 
   8   2.0000     -14.161148      -385.3444 
   9   2.0000     -14.161129      -385.3439 
  10   2.0000     -14.161040      -385.3415 
  11   2.0000     -14.160876      -385.3370 
  12   2.0000     -14.160380      -385.3235 
  13   2.0000     -14.159871      -385.3097 
  14   2.0000     -14.158920      -385.2838 
  15   2.0000     -14.158828      -385.2813 
  16   2.0000     -14.158689      -385.2775 
  17   2.0000     -14.158434      -385.2706 
  18   2.0000     -14.158407      -385.2698 
  19   2.0000     -14.158337      -385.2679 
  20   2.0000     -14.158202      -385.2643 
  21   2.0000     -10.109782      -275.1012 
  22   2.0000     -10.109746      -275.1002 
  23   2.0000     -10.108984      -275.0794 
  24   2.0000     -10.108621      -275.0696 
  25   2.0000     -10.108489      -275.0660 
  26   2.0000     -10.108465      -275.0653 
  27   2.0000     -10.085747      -274.4471 
  28   2.0000     -10.085706      -274.4460 
  29   2.0000     -10.085642      -274.4443 
  30   2.0000     -10.085547      -274.4417 
  31   2.0000     -10.085545      -274.4416 
  32   2.0000     -10.084162      -274.4040 
  33   2.0000     -10.083756      -274.3930 
  34   2.0000     -10.082142      -274.3490 
  35   2.0000     -10.081946      -274.3437 
  36   2.0000     -10.081861      -274.3414 
  37   2.0000     -10.081718      -274.3375 
  38   2.0000     -10.081477      -274.3309 
  39   2.0000     -10.081439      -274.3299 
  40   2.0000     -10.081364      -274.3279 
  41   2.0000     -10.064726      -273.8751 
  42   2.0000     -10.063850      -273.8513 
  43   2.0000     -10.063837      -273.8509 
  44   2.0000     -10.063744      -273.8484 
  45   2.0000     -10.063492      -273.8416 
  46   2.0000     -10.063450      -273.8404 
  47   2.0000     -10.063186      -273.8332 
  48   2.0000     -10.062940      -273.8265 
  49   2.0000     -10.062918      -273.8259 
  50   2.0000     -10.062808      -273.8229 
  51   2.0000     -10.062443      -273.8130 
  52   2.0000     -10.062369      -273.8110 
  53   2.0000     -10.062236      -273.8074 
  54   2.0000     -10.061966      -273.8000 
  55   2.0000     -10.061451      -273.7860 
  56   2.0000     -10.061322      -273.7825 
  57   2.0000     -10.061215      -273.7796 
  58   2.0000     -10.061061      -273.7754 
  59   2.0000     -10.058606      -273.7086 
  60   2.0000     -10.054583      -273.5991 
  61   2.0000      -2.997174       -81.5573 
  62   2.0000      -1.728104       -47.0241 
  63   2.0000      -1.727881       -47.0180 
  64   2.0000      -1.727673       -47.0124 
  65   2.0000      -0.914799       -24.8929 
  66   2.0000      -0.910331       -24.7714 
  67   2.0000      -0.909857       -24.7585 
  68   2.0000      -0.908923       -24.7330 
  69   2.0000      -0.907818       -24.7030 
  70   2.0000      -0.907127       -24.6842 
  71   2.0000      -0.888876       -24.1875 
  72   2.0000      -0.888802       -24.1855 
  73   2.0000      -0.888701       -24.1828 
  74   2.0000      -0.888684       -24.1823 
  75   2.0000      -0.888566       -24.1791 
  76   2.0000      -0.887220       -24.1425 
  77   2.0000      -0.887201       -24.1420 
  78   2.0000      -0.885681       -24.1006 
  79   2.0000      -0.885562       -24.0974 
  80   2.0000      -0.885479       -24.0951 
  81   2.0000      -0.885240       -24.0886 
  82   2.0000      -0.885093       -24.0846 
  83   2.0000      -0.885079       -24.0842 
  84   2.0000      -0.885017       -24.0825 
  85   2.0000      -0.747660       -20.3449 
  86   2.0000      -0.746534       -20.3142 
  87   2.0000      -0.745985       -20.2993 
  88   2.0000      -0.745597       -20.2887 
  89   2.0000      -0.745525       -20.2868 
  90   2.0000      -0.745198       -20.2779 
  91   2.0000      -0.738429       -20.0937 
  92   2.0000      -0.738415       -20.0933 
  93   2.0000      -0.738389       -20.0926 
  94   2.0000      -0.738307       -20.0904 
  95   2.0000      -0.738303       -20.0902 
  96   2.0000      -0.737347       -20.0642 
  97   2.0000      -0.736472       -20.0404 
  98   2.0000      -0.736424       -20.0391 
  99   2.0000      -0.736296       -20.0356 
 100   2.0000      -0.736173       -20.0323 
 101   2.0000      -0.735944       -20.0261 
 102   2.0000      -0.735904       -20.0250 
 103   2.0000      -0.735887       -20.0245 
 104   2.0000      -0.733576       -19.9616 
 105   2.0000      -0.508904       -13.8480 
 106   2.0000      -0.488575       -13.2948 
 107   2.0000      -0.488332       -13.2882 
 108   2.0000      -0.487814       -13.2741 
 109   2.0000      -0.484648       -13.1880 
 110   2.0000      -0.484499       -13.1839 
 111   2.0000      -0.476769       -12.9736 
 112   2.0000      -0.476312       -12.9611 
 113   2.0000      -0.476078       -12.9547 
 114   2.0000      -0.475857       -12.9487 
 115   2.0000      -0.475816       -12.9476 
 116   2.0000      -0.475751       -12.9459 
 117   2.0000      -0.474019       -12.8987 
 118   2.0000      -0.473917       -12.8959 
 119   2.0000      -0.473860       -12.8944 
 120   2.0000      -0.473567       -12.8864 
 121   2.0000      -0.473539       -12.8856 
 122   2.0000      -0.473402       -12.8819 
 123   2.0000      -0.473343       -12.8803 
 124   2.0000      -0.470440       -12.8013 
 125   2.0000      -0.452462       -12.3121 
 126   2.0000      -0.436803       -11.8860 
 127   2.0000      -0.435034       -11.8379 
 128   2.0000      -0.433840       -11.8054 
 129   2.0000      -0.433260       -11.7896 
 130   2.0000      -0.432287       -11.7631 
 131   2.0000      -0.431340       -11.7374 
 132   2.0000      -0.430730       -11.7208 
 133   2.0000      -0.429987       -11.7006 
 134   2.0000      -0.429303       -11.6819 
 135   2.0000      -0.428129       -11.6500 
 136   2.0000      -0.427588       -11.6353 
 137   2.0000      -0.426880       -11.6160 
 138   2.0000      -0.426333       -11.6011 
 139   2.0000      -0.422723       -11.5029 
 140   2.0000      -0.422575       -11.4989 
 141   2.0000      -0.422472       -11.4961 
 142   2.0000      -0.422348       -11.4927 
 143   2.0000      -0.422238       -11.4897 
 144   2.0000      -0.422226       -11.4893 
 145   2.0000      -0.422196       -11.4885 
 146   2.0000      -0.422179       -11.4881 
 147   2.0000      -0.422023       -11.4838 
 148   2.0000      -0.421953       -11.4819 
 149   2.0000      -0.421683       -11.4746 
 150   2.0000      -0.421339       -11.4652 
 151   2.0000      -0.420950       -11.4546 
 152   2.0000      -0.420763       -11.4495 
 153   2.0000      -0.420716       -11.4483 
 154   2.0000      -0.420632       -11.4460 
 155   2.0000      -0.420622       -11.4457 
 156   2.0000      -0.420552       -11.4438 
 157   2.0000      -0.420549       -11.4437 
 158   2.0000      -0.420391       -11.4394 
 159   2.0000      -0.420348       -11.4382 
 160   2.0000      -0.420270       -11.4361 
 161   2.0000      -0.420134       -11.4324 
 162   2.0000      -0.420014       -11.4292 
 163   2.0000      -0.419435       -11.4134 
 164   2.0000      -0.418092       -11.3769 
 165   2.0000      -0.416370       -11.3300 
 166   2.0000      -0.411573       -11.1995 
 167   2.0000      -0.409038       -11.1305 
 168   2.0000      -0.406907       -11.0725 
 169   2.0000      -0.379382       -10.3235 
 170   2.0000      -0.379141       -10.3169 
 171   2.0000      -0.357446        -9.7266 
 172   2.0000      -0.357255        -9.7214 
 173   2.0000      -0.355266        -9.6673 
 174   2.0000      -0.352386        -9.5889 
 175   2.0000      -0.351162        -9.5556 
 176   2.0000      -0.350170        -9.5286 
 177   2.0000      -0.347447        -9.4545 
 178   2.0000      -0.346201        -9.4206 
 179   2.0000      -0.345608        -9.4045 
 180   2.0000      -0.345484        -9.4011 
 181   2.0000      -0.345401        -9.3988 
 182   2.0000      -0.345201        -9.3934 
 183   2.0000      -0.345120        -9.3912 
 184   2.0000      -0.344892        -9.3850 
 185   2.0000      -0.340442        -9.2639 
 186   2.0000      -0.339431        -9.2364 
 187   2.0000      -0.335917        -9.1408 
 188   2.0000      -0.327347        -8.9076 
 189   2.0000      -0.324613        -8.8332 
 190   2.0000      -0.323457        -8.8017 
 191   2.0000      -0.322138        -8.7658 
 192   2.0000      -0.321315        -8.7434 
 193   2.0000      -0.320664        -8.7257 
 194   2.0000      -0.316623        -8.6158 
 195   2.0000      -0.315805        -8.5935 
 196   2.0000      -0.315588        -8.5876 
 197   2.0000      -0.314963        -8.5706 
 198   2.0000      -0.314456        -8.5568 
 199   2.0000      -0.314419        -8.5558 
 200   2.0000      -0.314300        -8.5525 
 201   2.0000      -0.314286        -8.5522 
 202   2.0000      -0.314128        -8.5478 
 203   2.0000      -0.314019        -8.5449 
 204   2.0000      -0.313621        -8.5341 
 205   2.0000      -0.313341        -8.5264 
 206   2.0000      -0.313183        -8.5221 
 207   2.0000      -0.312848        -8.5130 
 208   2.0000      -0.312536        -8.5045 
 209   2.0000      -0.311996        -8.4898 
 210   2.0000      -0.311827        -8.4853 
 211   2.0000      -0.311759        -8.4834 
 212   2.0000      -0.311716        -8.4822 
 213   2.0000      -0.311698        -8.4817 
 214   2.0000      -0.311688        -8.4814 
 215   2.0000      -0.311582        -8.4786 
 216   2.0000      -0.311494        -8.4762 
 217   2.0000      -0.311345        -8.4721 
 218   2.0000      -0.311298        -8.4709 
 219   2.0000      -0.311215        -8.4686 
 220   2.0000      -0.311166        -8.4673 
 221   2.0000      -0.311099        -8.4654 
 222   2.0000      -0.307540        -8.3686 
 223   2.0000      -0.304816        -8.2945 
[...]
      pz      :     0.015957  p :     0.044815
      px      :     0.020860
      py      :     0.007998
107 H s       :     0.754433  s :     0.754433
      pz      :     0.014158  p :     0.044831
      px      :     0.022757
      py      :     0.007915
108 H s       :     0.754542  s :     0.754542
      pz      :     0.014883  p :     0.044835
      px      :     0.008637
      py      :     0.021315
109 C s       :     2.946888  s :     2.946888
      pz      :     1.162204  p :     3.341611
      px      :     1.162369
      py      :     1.017037
      dz2     :     0.013014  d :     0.062727
      dxz     :     0.009417
      dyz     :     0.009805
      dx2y2   :     0.021061
      dxy     :     0.009430
110 C s       :     2.874741  s :     2.874741
      pz      :     0.834503  p :     2.852862
      px      :     0.834119
      py      :     1.184240
      dz2     :     0.009414  d :     0.106360
      dxz     :     0.000094
      dyz     :     0.034445
      dx2y2   :     0.028019
      dxy     :     0.034389
111 N s       :     3.411880  s :     3.411880
      pz      :     1.154322  p :     3.808411
      px      :     1.153805
      py      :     1.500283
      dz2     :     0.026456  d :     0.190497
      dxz     :     0.000089
      dyz     :     0.042657
      dx2y2   :     0.077542
      dxy     :     0.043753
112 H s       :     0.753343  s :     0.753343
      pz      :     0.023863  p :     0.044819
      px      :     0.011449
      py      :     0.009507
113 H s       :     0.753322  s :     0.753322
      pz      :     0.021816  p :     0.044867
      px      :     0.014483
      py      :     0.008568
114 H s       :     0.753378  s :     0.753378
      pz      :     0.008105  p :     0.044842
      px      :     0.027855
      py      :     0.008881
115 C s       :     2.943747  s :     2.943747
      pz      :     1.155817  p :     3.340689
      px      :     1.144918
      py      :     1.039954
      dz2     :     0.010961  d :     0.061972
      dxz     :     0.006955
      dyz     :     0.015006
      dx2y2   :     0.018642
      dxy     :     0.010406
116 C s       :     2.864077  s :     2.864077
      pz      :     0.829988  p :     2.781667
      px      :     0.849873
      py      :     1.101806
      dz2     :     0.012735  d :     0.111198
      dxz     :     0.006206
      dyz     :     0.031314
      dx2y2   :     0.030574
      dxy     :     0.030369
117 N s       :     3.350965  s :     3.350965
      pz      :     1.197198  p :     3.820097
      px      :     1.213246
      py      :     1.409653
      dz2     :     0.034874  d :     0.250919
      dxz     :     0.013394
      dyz     :     0.062524
      dx2y2   :     0.071569
      dxy     :     0.068558
118 H s       :     0.727689  s :     0.727689
      pz      :     0.028793  p :     0.050555
      px      :     0.013580
      py      :     0.008183
119 H s       :     0.746627  s :     0.746627
      pz      :     0.008565  p :     0.045271
      px      :     0.030207
      py      :     0.006499
120 H s       :     0.746737  s :     0.746737
      pz      :     0.019397  p :     0.045309
      px      :     0.008846
      py      :     0.017067


                      *****************************
                      * MAYER POPULATION ANALYSIS *
                      *****************************

  NA   - Mulliken gross atomic population
  ZA   - Total nuclear charge
  QA   - Mulliken gross atomic charge
  VA   - Mayer's total valence
  BVA  - Mayer's bonded valence
  FA   - Mayer's free valence

  ATOM       NA         ZA         QA         VA         BVA        FA
  0 Mg    10.6773    12.0000     1.3227     1.0515     1.0515    -0.0000
  1 C      6.6224     6.0000    -0.6224     3.7587     3.7587     0.0000
  2 C      5.6682     6.0000     0.3318     3.5982     3.5982     0.0000
  3 N      7.2704     7.0000    -0.2704     2.7504     2.7504    -0.0000
  4 H      0.7803     1.0000     0.2197     0.9384     0.9384     0.0000
  5 H      0.7537     1.0000     0.2463     0.9291     0.9291    -0.0000
  6 H      0.7802     1.0000     0.2198     0.9385     0.9385    -0.0000
  7 C      6.5700     6.0000    -0.5700     3.7933     3.7933    -0.0000
  8 C      5.6967     6.0000     0.3033     3.7837     3.7837    -0.0000
  9 N      7.3682     7.0000    -0.3682     2.9370     2.9370     0.0000
 10 H      0.7884     1.0000     0.2116     0.9409     0.9409    -0.0000
 11 H      0.7881     1.0000     0.2119     0.9407     0.9407    -0.0000
 12 H      0.7881     1.0000     0.2119     0.9407     0.9407     0.0000
 13 C      6.5932     6.0000    -0.5932     3.7843     3.7843     0.0000
 14 C      5.6605     6.0000     0.3395     3.6698     3.6698    -0.0000
 15 N      7.3860     7.0000    -0.3860     2.8539     2.8539    -0.0000
 16 H      0.7872     1.0000     0.2128     0.9408     0.9408     0.0000
 17 H      0.7876     1.0000     0.2124     0.9410     0.9410     0.0000
 18 H      0.7727     1.0000     0.2273     0.9383     0.9383     0.0000
 19 C      6.6170     6.0000    -0.6170     3.7560     3.7560     0.0000
 20 C      5.6588     6.0000     0.3412     3.3772     3.3772    -0.0000
 21 N      7.3295     7.0000    -0.3295     2.4125     2.4125    -0.0000
 22 H      0.7813     1.0000     0.2187     0.9388     0.9388    -0.0000
 23 H      0.7546     1.0000     0.2454     0.9295     0.9295     0.0000
 24 H      0.7810     1.0000     0.2190     0.9386     0.9386    -0.0000
 25 C      6.5668     6.0000    -0.5668     3.7923     3.7923    -0.0000
 26 C      5.7018     6.0000     0.2982     3.7916     3.7916    -0.0000
 27 N      7.3658     7.0000    -0.3658     2.9420     2.9420     0.0000
 28 H      0.7885     1.0000     0.2115     0.9410     0.9410     0.0000
 29 H      0.7884     1.0000     0.2116     0.9410     0.9410    -0.0000
 30 H      0.7881     1.0000     0.2119     0.9408     0.9408    -0.0000
 31 C      6.6358     6.0000    -0.6358     3.7591     3.7591    -0.0000
 32 C      5.6583     6.0000     0.3417     3.6912     3.6912     0.0000
 33 N      7.3812     7.0000    -0.3812     2.9145     2.9145    -0.0000
 34 H      0.7725     1.0000     0.2275     0.9382     0.9382    -0.0000
 35 H      0.7889     1.0000     0.2111     0.9445     0.9445    -0.0000
 36 H      0.7800     1.0000     0.2200     0.9420     0.9420    -0.0000
 37 C      6.6121     6.0000    -0.6121     3.7576     3.7576    -0.0000
 38 C      5.6610     6.0000     0.3390     3.4377     3.4377     0.0000
 39 N      7.3189     7.0000    -0.3189     2.5152     2.5152    -0.0000
 40 H      0.7536     1.0000     0.2464     0.9285     0.9285    -0.0000
 41 H      0.7814     1.0000     0.2186     0.9390     0.9390     0.0000
 42 H      0.7817     1.0000     0.2183     0.9391     0.9391     0.0000
 43 C      6.5655     6.0000    -0.5655     3.7924     3.7924    -0.0000
 44 C      5.7042     6.0000     0.2958     3.7949     3.7949    -0.0000
 45 N      7.3644     7.0000    -0.3644     2.9451     2.9451    -0.0000
 46 H      0.7885     1.0000     0.2115     0.9411     0.9411    -0.0000
 47 H      0.7885     1.0000     0.2115     0.9410     0.9410    -0.0000
 48 H      0.7883     1.0000     0.2117     0.9409     0.9409    -0.0000
 49 C      6.5678     6.0000    -0.5678     3.7885     3.7885     0.0000
 50 C      5.6876     6.0000     0.3124     3.6999     3.6999    -0.0000
 51 N      7.3670     7.0000    -0.3670     2.8674     2.8674    -0.0000
 52 H      0.7870     1.0000     0.2130     0.9405     0.9405     0.0000
 53 H      0.7866     1.0000     0.2134     0.9403     0.9403    -0.0000
 54 H      0.7873     1.0000     0.2127     0.9407     0.9407     0.0000
 55 C      6.5682     6.0000    -0.5682     3.7885     3.7885     0.0000
 56 C      5.6872     6.0000     0.3128     3.7038     3.7038    -0.0000
 57 N      7.3667     7.0000    -0.3667     2.8720     2.8720     0.0000
 58 H      0.7869     1.0000     0.2131     0.9405     0.9405     0.0000
 59 H      0.7868     1.0000     0.2132     0.9405     0.9405     0.0000
 60 H      0.7870     1.0000     0.2130     0.9406     0.9406     0.0000
 61 C      6.5696     6.0000    -0.5696     3.7936     3.7936    -0.0000
 62 C      5.6960     6.0000     0.3040     3.7774     3.7774    -0.0000
 63 N      7.3689     7.0000    -0.3689     2.9309     2.9309     0.0000
 64 H      0.7879     1.0000     0.2121     0.9407     0.9407     0.0000
 65 H      0.7884     1.0000     0.2116     0.9410     0.9410     0.0000
 66 H      0.7881     1.0000     0.2119     0.9407     0.9407     0.0000
 67 C      6.5653     6.0000    -0.5653     3.7923     3.7923    -0.0000
 68 C      5.7028     6.0000     0.2972     3.7863     3.7863    -0.0000
 69 N      7.3657     7.0000    -0.3657     2.9385     2.9385    -0.0000
 70 H      0.7883     1.0000     0.2117     0.9409     0.9409    -0.0000
 71 H      0.7885     1.0000     0.2115     0.9411     0.9411     0.0000
 72 H      0.7885     1.0000     0.2115     0.9410     0.9410    -0.0000
 73 C      6.6102     6.0000    -0.6102     3.7603     3.7603     0.0000
 74 C      5.6618     6.0000     0.3382     3.4027     3.4027     0.0000
 75 N      7.3164     7.0000    -0.3164     2.4677     2.4677    -0.0000
 76 H      0.7804     1.0000     0.2196     0.9384     0.9384     0.0000
 77 H      0.7804     1.0000     0.2196     0.9385     0.9385     0.0000
 78 H      0.7577     1.0000     0.2423     0.9311     0.9311    -0.0000
 79 C      6.6193     6.0000    -0.6193     3.7513     3.7513    -0.0000
 80 C      5.6697     6.0000     0.3303     3.5340     3.5340    -0.0000
 81 N      7.2807     7.0000    -0.2807     2.6656     2.6656    -0.0000
 82 H      0.7811     1.0000     0.2189     0.9388     0.9388     0.0000
 83 H      0.7797     1.0000     0.2203     0.9387     0.9387     0.0000
 84 H      0.7538     1.0000     0.2462     0.9297     0.9297    -0.0000
 85 C      6.5710     6.0000    -0.5710     3.7887     3.7887    -0.0000
 86 C      5.6832     6.0000     0.3168     3.7275     3.7275     0.0000
 87 N      7.3712     7.0000    -0.3712     2.8929     2.8929    -0.0000
 88 H      0.7879     1.0000     0.2121     0.9408     0.9408     0.0000
 89 H      0.7876     1.0000     0.2124     0.9406     0.9406    -0.0000
 90 H      0.7873     1.0000     0.2127     0.9406     0.9406     0.0000
 91 C      6.5779     6.0000    -0.5779     3.7899     3.7899    -0.0000
 92 C      5.6795     6.0000     0.3205     3.7480     3.7480     0.0000
 93 N      7.3733     7.0000    -0.3733     2.9117     2.9117     0.0000
 94 H      0.7872     1.0000     0.2128     0.9400     0.9400    -0.0000
 95 H      0.7870     1.0000     0.2130     0.9401     0.9401    -0.0000
 96 H      0.7867     1.0000     0.2133     0.9400     0.9400     0.0000
 97 C      6.5679     6.0000    -0.5679     3.7886     3.7886     0.0000
 98 C      5.6861     6.0000     0.3139     3.7033     3.7033    -0.0000
 99 N      7.3686     7.0000    -0.3686     2.8697     2.8697    -0.0000
100 H      0.7870     1.0000     0.2130     0.9405     0.9405     0.0000
101 H      0.7869     1.0000     0.2131     0.9405     0.9405     0.0000
102 H      0.7872     1.0000     0.2128     0.9406     0.9406     0.0000
103 C      6.5720     6.0000    -0.5720     3.7939     3.7939    -0.0000
104 C      5.6983     6.0000     0.3017     3.7899     3.7899    -0.0000
105 N      7.3664     7.0000    -0.3664     2.9405     2.9405    -0.0000
106 H      0.7880     1.0000     0.2120     0.9408     0.9408     0.0000
107 H      0.7878     1.0000     0.2122     0.9405     0.9405     0.0000
108 H      0.7878     1.0000     0.2122     0.9404     0.9404     0.0000
109 C      6.5706     6.0000    -0.5706     3.7901     3.7901    -0.0000
110 C      5.6849     6.0000     0.3151     3.7019     3.7019    -0.0000
111 N      7.3682     7.0000    -0.3682     2.8709     2.8709     0.0000
112 H      0.7868     1.0000     0.2132     0.9404     0.9404    -0.0000
113 H      0.7865     1.0000     0.2135     0.9402     0.9402    -0.0000
114 H      0.7868     1.0000     0.2132     0.9403     0.9403    -0.0000
115 C      6.6182     6.0000    -0.6182     3.7540     3.7540     0.0000
116 C      5.6463     6.0000     0.3537     3.3825     3.3825    -0.0000
117 N      7.3253     7.0000    -0.3253     2.4107     2.4107    -0.0000
118 H      0.7637     1.0000     0.2363     0.9356     0.9356     0.0000
119 H      0.7789     1.0000     0.2211     0.9381     0.9381     0.0000
120 H      0.7791     1.0000     0.2209     0.9378     0.9378     0.0000

  Mayer bond orders larger than 0.100000
B(  0-Mg,  3-N ) :   0.2408 B(  0-Mg, 21-N ) :   0.1034 B(  0-Mg, 39-N ) :   0.1459 
B(  0-Mg, 75-N ) :   0.1476 B(  0-Mg, 81-N ) :   0.2016 B(  0-Mg,117-N ) :   0.1079 
B(  1-C ,  2-C ) :   0.9876 B(  1-C ,  4-H ) :   0.9368 B(  1-C ,  5-H ) :   0.9068 
B(  1-C ,  6-H ) :   0.9368 B(  2-C ,  3-N ) :   2.5977 B(  7-C ,  8-C ) :   0.9720 
B(  7-C , 10-H ) :   0.9402 B(  7-C , 11-H ) :   0.9403 B(  7-C , 12-H ) :   0.9404 
B(  8-C ,  9-N ) :   2.8636 B( 13-C , 14-C ) :   0.9690 B( 13-C , 16-H ) :   0.9413 
B( 13-C , 17-H ) :   0.9427 B( 13-C , 18-H ) :   0.9171 B( 14-C , 15-N ) :   2.7414 
B( 19-C , 20-C ) :   0.9848 B( 19-C , 22-H ) :   0.9373 B( 19-C , 23-H ) :   0.9081 
B( 19-C , 24-H ) :   0.9390 B( 20-C , 21-N ) :   2.3946 B( 25-C , 26-C ) :   0.9731 
B( 25-C , 28-H ) :   0.9403 B( 25-C , 29-H ) :   0.9407 B( 25-C , 30-H ) :   0.9403 
B( 26-C , 27-N ) :   2.8698 B( 31-C , 32-C ) :   0.9277 B( 31-C , 34-H ) :   0.9250 
B( 31-C , 35-H ) :   0.9387 B( 31-C , 36-H ) :   0.9363 B( 32-C , 33-N ) :   2.8155 
B( 37-C , 38-C ) :   0.9849 B( 37-C , 40-H ) :   0.9085 B( 37-C , 41-H ) :   0.9376 
B( 37-C , 42-H ) :   0.9369 B( 38-C , 39-N ) :   2.4563 B( 43-C , 44-C ) :   0.9733 
B( 43-C , 46-H ) :   0.9403 B( 43-C , 47-H ) :   0.9404 B( 43-C , 48-H ) :   0.9403 
B( 44-C , 45-N ) :   2.8725 B( 49-C , 50-C ) :   0.9714 B( 49-C , 52-H ) :   0.9392 
B( 49-C , 53-H ) :   0.9394 B( 49-C , 54-H ) :   0.9394 B( 50-C , 51-N ) :   2.7728 
B( 55-C , 56-C ) :   0.9712 B( 55-C , 58-H ) :   0.9393 B( 55-C , 59-H ) :   0.9396 
B( 55-C , 60-H ) :   0.9391 B( 56-C , 57-N ) :   2.7765 B( 61-C , 62-C ) :   0.9722 
B( 61-C , 64-H ) :   0.9407 B( 61-C , 65-H ) :   0.9400 B( 61-C , 66-H ) :   0.9405 
B( 62-C , 63-N ) :   2.8573 B( 67-C , 68-C ) :   0.9726 B( 67-C , 70-H ) :   0.9403 
B( 67-C , 71-H ) :   0.9404 B( 67-C , 72-H ) :   0.9404 B( 68-C , 69-N ) :   2.8649 
B( 73-C , 74-C ) :   0.9882 B( 73-C , 76-H ) :   0.9377 B( 73-C , 77-H ) :   0.9375 
B( 73-C , 78-H ) :   0.9111 B( 74-C , 75-N ) :   2.4174 B( 79-C , 80-C ) :   0.9789 
B( 79-C , 82-H ) :   0.9397 B( 79-C , 83-H ) :   0.9384 B( 79-C , 84-H ) :   0.9027 
B( 80-C , 81-N ) :   2.5491 B( 85-C , 86-C ) :   0.9697 B( 85-C , 88-H ) :   0.9405 
B( 85-C , 89-H ) :   0.9399 B( 85-C , 90-H ) :   0.9403 B( 86-C , 87-N ) :   2.8035 
B( 91-C , 92-C ) :   0.9694 B( 91-C , 94-H ) :   0.9391 B( 91-C , 95-H ) :   0.9392 
B( 91-C , 96-H ) :   0.9406 B( 92-C , 93-N ) :   2.8197 B( 97-C , 98-C ) :   0.9715 
B( 97-C ,100-H ) :   0.9392 B( 97-C ,101-H ) :   0.9395 B( 97-C ,102-H ) :   0.9394 
B( 98-C , 99-N ) :   2.7763 B(103-C ,104-C ) :   0.9721 B(103-C ,106-H ) :   0.9404 
B(103-C ,107-H ) :   0.9398 B(103-C ,108-H ) :   0.9403 B(104-C ,105-N ) :   2.8683 
B(109-C ,110-C ) :   0.9714 B(109-C ,112-H ) :   0.9391 B(109-C ,113-H ) :   0.9394 
B(109-C ,114-H ) :   0.9389 B(110-C ,111-N ) :   2.7750 B(115-C ,116-C ) :   0.9800 
B(115-C ,118-H ) :   0.9092 B(115-C ,119-H ) :   0.9379 B(115-C ,120-H ) :   0.9380 
B(116-C ,117-N ) :   2.3951 

-------
TIMINGS
-------

Total SCF time: 0 days 0 hours 7 min 2 sec 

Total time                  ....     422.075 sec
Sum of individual times     ....     380.291 sec  ( 90.1%)

Fock matrix formation       ....     290.390 sec  ( 68.8%)
  Split-RI-J                ....      55.752 sec  ( 19.2% of F)
  XC integration            ....      98.569 sec  ( 33.9% of F)
    Basis function eval.    ....      17.449 sec  ( 17.7% of XC)
    Density eval.           ....      30.530 sec  ( 31.0% of XC)
    XC-Functional eval.     ....      13.753 sec  ( 14.0% of XC)
    XC-Potential eval.      ....      24.264 sec  ( 24.6% of XC)
Diagonalization             ....      32.651 sec  (  7.7%)
Density matrix formation    ....       0.829 sec  (  0.2%)
Population analysis         ....       0.984 sec  (  0.2%)
Initial guess               ....       7.294 sec  (  1.7%)
Orbital Transformation      ....       0.000 sec  (  0.0%)
Orbital Orthonormalization  ....       0.000 sec  (  0.0%)
DIIS solution               ....       5.003 sec  (  1.2%)
SOSCF solution              ....      13.432 sec  (  3.2%)
Grid generation             ....      29.707 sec  (  7.0%)

Maximum memory used throughout the entire SCF-calculation: 1461.7 MB


-------------------------------------------------------------------------------
                          DFT DISPERSION CORRECTION                            
                                                                               
                                 DFTD4 V2.5                                    
-------------------------------------------------------------------------------
The R2SCAN3C composite method is recognized
Using three-body term ABC
Active option DFTDOPT                   ...         5   

Starting D4
-------------------------   ----------------
Dispersion correction           -0.035504249
-------------------------   ----------------

------------------   -----------------
gCP correction             0.056720833
------------------   -----------------

-------------------------   --------------------
FINAL SINGLE POINT ENERGY     -2854.490805310287
-------------------------   --------------------


                            ***************************************
                            *     ORCA property calculations      *
                            ***************************************

                                    ---------------------
                                    Active property flags
                                    ---------------------
   (+) Dipole Moment


------------------------------------------------------------------------------
                       ORCA ELECTRIC PROPERTIES CALCULATION
------------------------------------------------------------------------------

Dipole Moment Calculation                       ... on
Quadrupole Moment Calculation                   ... off
Polarizability Calculation                      ... off
GBWName                                         ... ORCA.gbw
Electron density                                ... ORCA.scfp
The origin for moment calculation is the CENTER OF MASS  = ( 0.610376, -0.484798 -0.114957)

-------------
DIPOLE MOMENT
-------------
                                X             Y             Z
Electronic contribution:      1.21021     -11.08340       2.58854
Nuclear contribution   :      0.17313       9.62253      -1.20948
                        -----------------------------------------
Total Dipole Moment    :      1.38334      -1.46088       1.37906
                        -----------------------------------------
Magnitude (a.u.)       :      2.43918
Magnitude (Debye)      :      6.19990



--------------------
Rotational spectrum 
--------------------
 
Rotational constants in cm-1:     0.000816     0.000531     0.000451 
Rotational constants in MHz :    24.467494    15.923392    13.524730 

 Dipole components along the rotational axes: 
x,y,z [a.u.] :     1.896642     1.460700    -0.467660 
x,y,z [Debye]:     4.820881     3.712805    -1.188696 

 

Timings for individual modules:

Sum of individual times         ...      430.811 sec (=   7.180 min)
GTO integral calculation        ...        6.006 sec (=   0.100 min)   1.4 %
SCF iterations                  ...      424.806 sec (=   7.080 min)  98.6 %
                             ****ORCA TERMINATED NORMALLY****
TOTAL RUN TIME: 0 days 0 hours 7 minutes 15 seconds 290 msec
