
                                 *****************
                                 * O   R   C   A *
                                 *****************

                                            #,                                       
                                            ###                                      
                                            ####                                     
                                            #####                                    
                                            ######                                   
                                           ########,                                 
                                     ,,################,,,,,                         
                               ,,#################################,,                 
                          ,,##########################################,,             
                       ,#########################################, ''#####,          
                    ,#############################################,,   '####,        
                  ,##################################################,,,,####,       
                ,###########''''           ''''###############################       
              ,#####''   ,,,,##########,,,,          '''####'''          '####       
            ,##' ,,,,###########################,,,                        '##       
           ' ,,###''''                  '''############,,,                           
         ,,##''                                '''############,,,,        ,,,,,,###''
      ,#''                                            '''#######################'''  
     '                                                          ''''####''''         
             ,#######,   #######,   ,#######,      ##                                
            ,#'     '#,  ##    ##  ,#'     '#,    #''#        ######   ,####,        
            ##       ##  ##   ,#'  ##            #'  '#       #        #'  '#        
            ##       ##  #######   ##           ,######,      #####,   #    #        
            '#,     ,#'  ##    ##  '#,     ,#' ,#      #,         ##   #,  ,#        
             '#######'   ##     ##  '#######'  #'      '#     #####' # '####'        



                  #######################################################
                  #                        -***-                        #
                  #          Department of theory and spectroscopy      #
                  #    Directorship and core code : Frank Neese         #
                  #        Max Planck Institute fuer Kohlenforschung    #
                  #                Kaiser Wilhelm Platz 1               #
                  #                 D-45470 Muelheim/Ruhr               #
                  #                      Germany                        #
                  #                                                     #
                  #                  All rights reserved                #
                  #                        -***-                        #
                  #######################################################


                         Program Version 5.0.4 -  RELEASE  -


 With contributions from (in alphabetic order):
   Daniel Aravena         : Magnetic Suceptibility
   Michael Atanasov       : Ab Initio Ligand Field Theory (pilot matlab implementation)
   Alexander A. Auer      : GIAO ZORA, VPT2 properties, NMR spectrum
   Ute Becker             : Parallelization
   Giovanni Bistoni       : ED, misc. LED, open-shell LED, HFLD
   Martin Brehm           : Molecular dynamics
   Dmytro Bykov           : SCF Hessian
   Vijay G. Chilkuri      : MRCI spin determinant printing, contributions to CSF-ICE
   Dipayan Datta          : RHF DLPNO-CCSD density
   Achintya Kumar Dutta   : EOM-CC, STEOM-CC
   Dmitry Ganyushin       : Spin-Orbit,Spin-Spin,Magnetic field MRCI
   Miquel Garcia          : C-PCM and meta-GGA Hessian, CC/C-PCM, Gaussian charge scheme
   Yang Guo               : DLPNO-NEVPT2, F12-NEVPT2, CIM, IAO-localization
   Andreas Hansen         : Spin unrestricted coupled pair/coupled cluster methods
   Benjamin Helmich-Paris : MC-RPA, TRAH-SCF, COSX integrals
   Lee Huntington         : MR-EOM, pCC
   Robert Izsak           : Overlap fitted RIJCOSX, COSX-SCS-MP3, EOM
   Marcus Kettner         : VPT2
   Christian Kollmar      : KDIIS, OOCD, Brueckner-CCSD(T), CCSD density, CASPT2, CASPT2-K
   Simone Kossmann        : Meta GGA functionals, TD-DFT gradient, OOMP2, MP2 Hessian
   Martin Krupicka        : Initial AUTO-CI
   Lucas Lang             : DCDCAS
   Marvin Lechner         : AUTO-CI (C++ implementation), FIC-MRCC
   Dagmar Lenk            : GEPOL surface, SMD
   Dimitrios Liakos       : Extrapolation schemes; Compound Job, initial MDCI parallelization
   Dimitrios Manganas     : Further ROCIS development; embedding schemes
   Dimitrios Pantazis     : SARC Basis sets
   Anastasios Papadopoulos: AUTO-CI, single reference methods and gradients
   Taras Petrenko         : DFT Hessian,TD-DFT gradient, ASA, ECA, R-Raman, ABS, FL, XAS/XES, NRVS
   Peter Pinski           : DLPNO-MP2, DLPNO-MP2 Gradient
   Christoph Reimann      : Effective Core Potentials
   Marius Retegan         : Local ZFS, SOC
   Christoph Riplinger    : Optimizer, TS searches, QM/MM, DLPNO-CCSD(T), (RO)-DLPNO pert. Triples
   Tobias Risthaus        : Range-separated hybrids, TD-DFT gradient, RPA, STAB
   Michael Roemelt        : Original ROCIS implementation
   Masaaki Saitow         : Open-shell DLPNO-CCSD energy and density
   Barbara Sandhoefer     : DKH picture change effects
   Avijit Sen             : IP-ROCIS
   Kantharuban Sivalingam : CASSCF convergence, NEVPT2, FIC-MRCI
   Bernardo de Souza      : ESD, SOC TD-DFT
   Georgi Stoychev        : AutoAux, RI-MP2 NMR, DLPNO-MP2 response
   Willem Van den Heuvel  : Paramagnetic NMR
   Boris Wezisla          : Elementary symmetry handling
   Frank Wennmohs         : Technical directorship


 We gratefully acknowledge several colleagues who have allowed us to
 interface, adapt or use parts of their codes:
   Stefan Grimme, W. Hujo, H. Kruse, P. Pracht,  : VdW corrections, initial TS optimization,
                  C. Bannwarth, S. Ehlert          DFT functionals, gCP, sTDA/sTD-DF
   Ed Valeev, F. Pavosevic, A. Kumar             : LibInt (2-el integral package), F12 methods
   Garnet Chan, S. Sharma, J. Yang, R. Olivares  : DMRG
   Ulf Ekstrom                                   : XCFun DFT Library
   Mihaly Kallay                                 : mrcc  (arbitrary order and MRCC methods)
   Jiri Pittner, Ondrej Demel                    : Mk-CCSD
   Frank Weinhold                                : gennbo (NPA and NBO analysis)
   Christopher J. Cramer and Donald G. Truhlar   : smd solvation model
   Lars Goerigk                                  : TD-DFT with DH, B97 family of functionals
   V. Asgeirsson, H. Jonsson                     : NEB implementation
   FAccTs GmbH                                   : IRC, NEB, NEB-TS, DLPNO-Multilevel, CI-OPT
                                                   MM, QMMM, 2- and 3-layer-ONIOM, Crystal-QMMM,
                                                   LR-CPCM, SF, NACMEs, symmetry and pop. for TD-DFT,
                                                   nearIR, NL-DFT gradient (VV10), updates on ESD,
                                                   ML-optimized integration grids
   S Lehtola, MJT Oliveira, MAL Marques          : LibXC Library
   Liviu Ungur et al                             : ANISO software


 Your calculation uses the libint2 library for the computation of 2-el integrals
 For citations please refer to: http://libint.valeyev.net

 Your ORCA version has been built with support for libXC version: 5.1.0
 For citations please refer to: https://tddft.org/programs/libxc/

 This ORCA versions uses:
   CBLAS   interface :  Fast vector & matrix operations
   LAPACKE interface :  Fast linear algebra routines
   SCALAPACK package :  Parallel linear algebra routines
   Shared memory     :  Shared parallel matrices
   BLAS/LAPACK       :  OpenBLAS 0.3.15  USE64BITINT DYNAMIC_ARCH NO_AFFINITY SkylakeX SINGLE_THREADED
        Core in use  :  SkylakeX
   Copyright (c) 2011-2014, The OpenBLAS Project




***************************************
The coordinates will be read from file: xtbopt.xyz
***************************************


Your calculation utilizes the geometrical counterpoise correction gCP
Please cite in your paper:
H.Kruse, S. Grimme J.Chem.Phys., 136, (2012), 154101 
   

Your calculation utilizes the atom-pairwise dispersion correction
based on tight binding partial charges (D4)
Cite in your paper:
E.Caldeweyher, C.Bannwarth, S.Grimme, J.Chem.Phys., (2017), 147, 034112.
E.Caldeweyher, S.Ehlert, A.Hansen, H.Neugebauer, S.Grimme, J.Chem.Phys., (2018), in progress.
   

Your calculation utilizes the SMD solvation module
Please cite in your paper:
A.V. Marenich, C.J. Cramer, D.G. Truhlar J. Phys. Chem. B, 113, (2009), 6378 

================================================================================

----- Orbital basis set information -----
Your calculation utilizes the basis: def2-mTZVPP
   Stefan Grimme, Andreas Hansen, Sebastian Ehlert, and Jan-Michael Mewes 
   J. Chem. Phys. 154, 000000 (2021). DOI: 10.1063/5.0040021

----- AuxJ basis set information -----
Your calculation utilizes the auxiliary basis: def2/J
   F. Weigend, Phys. Chem. Chem. Phys. 8, 1057 (2006).

================================================================================
                                        WARNINGS
                       Please study these warnings very carefully!
================================================================================

Using LibXC functional ID 497 : Re-regularized SCAN exchange by Furness et al
[ 1]  J. W. Furness, A. D. Kaplan, J. Ning, J. P. Perdew, and J. Sun, J. Phys. Chem. Lett. 11, 8208 (2020)
[ 2]  J. W. Furness, A. D. Kaplan, J. Ning, J. P. Perdew, and J. Sun, J. Phys. Chem. Lett. 11, 9248 (2020)
Using LibXC functional ID 498 : Re-regularized SCAN correlation by Furness et al
[ 1]  J. W. Furness, A. D. Kaplan, J. Ning, J. P. Perdew, and J. Sun, J. Phys. Chem. Lett. 11, 8208 (2020)
[ 2]  J. W. Furness, A. D. Kaplan, J. Ning, J. P. Perdew, and J. Sun, J. Phys. Chem. Lett. 11, 9248 (2020)
Using LibXC functional ID 497 : Re-regularized SCAN exchange by Furness et al
[ 1]  J. W. Furness, A. D. Kaplan, J. Ning, J. P. Perdew, and J. Sun, J. Phys. Chem. Lett. 11, 8208 (2020)
[ 2]  J. W. Furness, A. D. Kaplan, J. Ning, J. P. Perdew, and J. Sun, J. Phys. Chem. Lett. 11, 9248 (2020)
Using LibXC functional ID 498 : Re-regularized SCAN correlation by Furness et al
[ 1]  J. W. Furness, A. D. Kaplan, J. Ning, J. P. Perdew, and J. Sun, J. Phys. Chem. Lett. 11, 8208 (2020)
[ 2]  J. W. Furness, A. D. Kaplan, J. Ning, J. P. Perdew, and J. Sun, J. Phys. Chem. Lett. 11, 9248 (2020)

INFO   : the flag for use of the SHARK integral package has been found!

================================================================================
                                       INPUT FILE
================================================================================
NAME = ORCA.in
|  1> ! r2SCAN-3c ENERGY TightSCF defgrid3 def2/J
|  2> %maxcore 8000
|  3> %PAL NPROCS 8 END
|  4> %CPCM SMD TRUE
|  5>       SMDSOLVENT "MeCN"
|  6> END
|  7> *xyzfile 1 1  xtbopt.xyz
|  8> 
|  9>                          ****END OF INPUT****
================================================================================

                       ****************************
                       * Single Point Calculation *
                       ****************************

---------------------------------
CARTESIAN COORDINATES (ANGSTROEM)
---------------------------------
  H     -3.917769   -2.584102    1.223813
  H     -1.382136    1.433286    4.631042
  C     -2.162677    3.989385   -0.256578
  H     -2.104632    1.207383    3.017165
  H     -3.222433   -2.349270    2.842248
  H     -1.062853    2.607289    3.331410
  N     -1.170687    1.642729    0.059977
  H     -3.225260    3.910717   -0.487839
  H     -1.644571    4.487169   -1.077381
  H     -2.024156    4.562825    0.659233
  N      2.187605    1.517744   -0.369340
  C      3.060421    2.227185   -0.159406
  C     -1.609538    2.691082   -0.083211
  C      4.160756    3.093792    0.103113
  Na     0.472202   -0.077984   -0.250142
  N     -0.248029   -0.433899   -2.583743
  C     -0.477310   -0.173321   -3.674227
  C     -0.766201    0.144326   -5.034116
  H      4.407560    3.662232   -0.791685
  H      5.018886    2.488838    0.403521
  H      3.901994    3.775898    0.911527
  N      2.273512   -1.750090   -0.379934
  C      2.350314   -2.101795    0.706245
  C      2.457011   -2.550810    2.053201
  H      3.503737   -2.710538    2.305241
  H      1.904017   -3.482287    2.160894
  H      2.026894   -1.789883    2.701531
  H     -0.037675    0.871387   -5.389917
  H     -1.771252    0.562325   -5.091565
  H     -0.710420   -0.755926   -5.644223
  N      0.813046    0.161544    2.845497
  C     -0.094175    0.790878    3.147619
  C     -1.226875    1.553918    3.559702
  C     -2.035579   -1.747091    1.257836
  C     -3.320976   -1.918894    1.847364
  H     -3.810875   -0.946456    1.916646
  N     -1.011125   -1.600519    0.769942
  C     -0.311913   -3.977058   -1.496598
  C      0.461947   -4.617643   -0.485112
  N      1.084260   -5.144346    0.320680
  H      0.008236   -2.938897   -1.583214
  H     -1.366766   -4.001496   -1.223927
  H     -0.167304   -4.492218   -2.444944
  C      3.458835   -0.291492   -3.304252
  C      2.830186    0.781257   -4.001421
  N      2.331770    1.638018   -4.577297
  H      3.427565   -1.191525   -3.916235
  H      2.930817   -0.469776   -2.367582
  H      4.495281   -0.033400   -3.092806
  C      0.841035    6.303311    3.022143
  C     -0.321892    5.484300    2.955544
  N     -1.257730    4.823520    2.895939
  H      0.727025    7.039319    3.816918
  H      0.980092    6.812747    2.069256
  H      1.710553    5.676734    3.229043
  C      1.055864    4.670840   -4.787040
  C      0.318308    4.928119   -3.591859
  N     -0.274167    5.136516   -2.633496
  H      1.856294    5.402592   -4.887416
  H      0.390977    4.741032   -5.646847
  H      1.484281    3.668338   -4.735595
  C     12.513521   -1.441750   -2.225154
  C     11.272724   -1.212013   -1.550377
  N     10.280385   -1.029529   -1.009550
  H     12.318316   -1.722077   -3.259564
  H     13.052988   -2.246158   -1.726354
  H     13.113486   -0.532732   -2.201955
  C     -6.963753   -1.475649    2.163296
  C     -6.907877   -1.303814    0.752200
  N     -6.843417   -1.160444   -0.384416
  H     -7.991191   -1.370155    2.508019
  H     -6.337576   -0.717515    2.633299
  H     -6.594714   -2.471058    2.418139
  C     -3.811965    0.024624   -1.252706
  C     -3.800841    0.304764   -2.651220
  N     -3.806849    0.516224   -3.777548
  H     -2.907292   -0.521477   -0.989476
  H     -4.694104   -0.564169   -1.000583
  H     -3.836801    0.956860   -0.691258
  C     -4.492231    3.597079    2.519674
  C     -4.525866    2.187612    2.323244
  N     -4.547320    1.050659    2.173592
  H     -5.115439    3.863080    3.372424
  H     -4.872702    4.083624    1.622148
  H     -3.466508    3.917093    2.704427
  C     -6.999458    1.818943   -1.968460
  C     -6.139641    2.681607   -1.225448
  N     -5.441658    3.365746   -0.627226
  H     -7.069991    0.856599   -1.458555
  H     -6.584711    1.670765   -2.964800
  H     -7.990163    2.264320   -2.046269
  C     -4.145426   -6.133977    1.336058
  C     -5.041649   -5.234951    1.990264
  N     -5.751249   -4.495014    2.501778
  H     -3.288651   -6.332716    1.978375
  H     -3.806711   -5.669839    0.408480
  H     -4.658842   -7.067846    1.112195
  C     -5.442114   -2.972026   -2.770084
  C     -4.485621   -3.498485   -1.852751
  N     -3.723682   -3.914738   -1.104228
  H     -5.902400   -3.784711   -3.330123
  H     -4.949473   -2.284749   -3.457215
  H     -6.208532   -2.435889   -2.208214
  C      7.740186   -1.114248    1.188569
  C      6.991356    0.094109    1.233844
  N      6.388201    1.069227    1.280168
  H      8.473480   -1.060588    0.383679
  H      7.069713   -1.956694    1.015491
  H      8.258816   -1.256195    2.135968
  C      5.191482    2.560126    4.044117
  C      4.209261    3.558725    3.773322
  N      3.420281    4.359164    3.549050
  H      5.543775    2.129263    3.104848
  H      4.750082    1.774504    4.655799
  H      6.030993    3.008546    4.573943
  C      4.250920   -5.900081    0.880932
  C      5.122934   -4.772280    0.959852
  N      5.822165   -3.867415    1.034102
  H      3.231707   -5.564217    0.678872
  H      4.272526   -6.443002    1.825084
  H      4.578780   -6.558114    0.077421

----------------------------
CARTESIAN COORDINATES (A.U.)
----------------------------
  NO LB      ZA    FRAG     MASS         X           Y           Z
   0 H     1.0000    0     1.008   -7.403510   -4.883246    2.312671
   1 H     1.0000    0     1.008   -2.611859    2.708519    8.751402
   2 C     6.0000    0    12.011   -4.086868    7.538845   -0.484862
   3 H     1.0000    0     1.008   -3.977177    2.281623    5.701615
   4 H     1.0000    0     1.008   -6.089516   -4.439477    5.371070
   5 H     1.0000    0     1.008   -2.008502    4.927062    6.295453
   6 N     7.0000    0    14.007   -2.212278    3.104308    0.113339
   7 H     1.0000    0     1.008   -6.094858    7.390183   -0.921882
   8 H     1.0000    0     1.008   -3.107789    8.479521   -2.035955
   9 H     1.0000    0     1.008   -3.825101    8.622489    1.245771
  10 N     7.0000    0    14.007    4.133974    2.868120   -0.697951
  11 C     6.0000    0    12.011    5.783358    4.208769   -0.301233
  12 C     6.0000    0    12.011   -3.041586    5.085408   -0.157246
  13 C     6.0000    0    12.011    7.862690    5.846419    0.194856
  14 Na   11.0000    0    22.990    0.892333   -0.147369   -0.472699
  15 N     7.0000    0    14.007   -0.468708   -0.819951   -4.882567
  16 C     6.0000    0    12.011   -0.901985   -0.327529   -6.943284
  17 C     6.0000    0    12.011   -1.447910    0.272736   -9.513100
  18 H     1.0000    0     1.008    8.329082    6.920616   -1.496068
  19 H     1.0000    0     1.008    9.484320    4.703223    0.762545
  20 H     1.0000    0     1.008    7.373700    7.135412    1.722537
  21 N     7.0000    0    14.007    4.296314   -3.307191   -0.717972
  22 C     6.0000    0    12.011    4.441449   -3.971817    1.334609
  23 C     6.0000    0    12.011    4.643078   -4.820332    3.879988
  24 H     1.0000    0     1.008    6.621104   -5.122175    4.356275
  25 H     1.0000    0     1.008    3.598072   -6.580569    4.083497
  26 H     1.0000    0     1.008    3.830274   -3.382389    5.105153
  27 H     1.0000    0     1.008   -0.071195    1.646683  -10.185466
  28 H     1.0000    0     1.008   -3.347181    1.062641   -9.621663
  29 H     1.0000    0     1.008   -1.342500   -1.428493  -10.666036
  30 N     7.0000    0    14.007    1.536434    0.305274    5.377210
  31 C     6.0000    0    12.011   -0.177965    1.494544    5.948138
  32 C     6.0000    0    12.011   -2.318458    2.936479    6.726861
  33 C     6.0000    0    12.011   -3.846687   -3.301524    2.376965
  34 C     6.0000    0    12.011   -6.275735   -3.626183    3.491013
  35 H     1.0000    0     1.008   -7.201511   -1.788543    3.621937
  36 N     7.0000    0    14.007   -1.910749   -3.024543    1.454980
  37 C     6.0000    0    12.011   -0.589430   -7.515550   -2.828161
  38 C     6.0000    0    12.011    0.872953   -8.726081   -0.916729
  39 N     7.0000    0    14.007    2.048955   -9.721405    0.605997
  40 H     1.0000    0     1.008    0.015563   -5.553711   -2.991841
  41 H     1.0000    0     1.008   -2.582813   -7.561731   -2.312887
  42 H     1.0000    0     1.008   -0.316159   -8.489062   -4.620275
  43 C     6.0000    0    12.011    6.536251   -0.550840   -6.244132
  44 C     6.0000    0    12.011    5.348277    1.476362   -7.561589
  45 N     7.0000    0    14.007    4.406407    3.095405   -8.649838
  46 H     1.0000    0     1.008    6.477158   -2.251656   -7.400612
  47 H     1.0000    0     1.008    5.538442   -0.887748   -4.474082
  48 H     1.0000    0     1.008    8.494849   -0.063116   -5.844557
  49 C     6.0000    0    12.011    1.589326   11.911532    5.711023
  50 C     6.0000    0    12.011   -0.608289   10.363825    5.585168
  51 N     7.0000    0    14.007   -2.376765    9.115133    5.472532
  52 H     1.0000    0     1.008    1.373878   13.302385    7.212931
  53 H     1.0000    0     1.008    1.852106   12.874225    3.910327
  54 H     1.0000    0     1.008    3.232477   10.727473    6.102008
  55 C     6.0000    0    12.011    1.995294    8.826608   -9.046195
  56 C     6.0000    0    12.011    0.601515    9.312795   -6.787630
  57 N     7.0000    0    14.007   -0.518101    9.706609   -4.976586
  58 H     1.0000    0     1.008    3.507887   10.209419   -9.235879
  59 H     1.0000    0     1.008    0.738840    8.959251  -10.670995
  60 H     1.0000    0     1.008    2.804884    6.932154   -8.948978
  61 C     6.0000    0    12.011   23.647127   -2.724513   -4.204931
  62 C     6.0000    0    12.011   21.302360   -2.290372   -2.929787
  63 N     7.0000    0    14.007   19.427112   -1.945528   -1.907773
  64 H     1.0000    0     1.008   23.278244   -3.254254   -6.159684
  65 H     1.0000    0     1.008   24.666572   -4.244624   -3.262337
  66 H     1.0000    0     1.008   24.780897   -1.006717   -4.161092
  67 C     6.0000    0    12.011  -13.159586   -2.788573    4.088036
  68 C     6.0000    0    12.011  -13.053996   -2.463851    1.421452
  69 N     7.0000    0    14.007  -12.932183   -2.192921   -0.726441
  70 H     1.0000    0     1.008  -15.101162   -2.589217    4.739469
  71 H     1.0000    0     1.008  -11.976283   -1.355907    4.976213
  72 H     1.0000    0     1.008  -12.462204   -4.669623    4.569621
  73 C     6.0000    0    12.011   -7.203570    0.046532   -2.367272
  74 C     6.0000    0    12.011   -7.182549    0.575921   -5.010080
  75 N     7.0000    0    14.007   -7.193902    0.975522   -7.138531
  76 H     1.0000    0     1.008   -5.493986   -0.985448   -1.869839
  77 H     1.0000    0     1.008   -8.870571   -1.066125   -1.890827
  78 H     1.0000    0     1.008   -7.250503    1.808203   -1.306288
  79 C     6.0000    0    12.011   -8.489086    6.797494    4.761494
  80 C     6.0000    0    12.011   -8.552648    4.133987    4.390296
  81 N     7.0000    0    14.007   -8.593190    1.985459    4.107493
  82 H     1.0000    0     1.008   -9.666780    7.300164    6.372958
  83 H     1.0000    0     1.008   -9.208072    7.716930    3.065416
  84 H     1.0000    0     1.008   -6.550750    7.402234    5.110627
  85 C     6.0000    0    12.011  -13.227060    3.437305   -3.719850
  86 C     6.0000    0    12.011  -11.602239    5.067503   -2.315762
  87 N     7.0000    0    14.007  -10.283242    6.360339   -1.185286
  88 H     1.0000    0     1.008  -13.360347    1.618738   -2.756269
  89 H     1.0000    0     1.008  -12.443301    3.157289   -5.602661
  90 H     1.0000    0     1.008  -15.099220    4.278944   -3.866889
  91 C     6.0000    0    12.011   -7.833719  -11.591536    2.524784
  92 C     6.0000    0    12.011   -9.527336   -9.892624    3.761055
  93 N     7.0000    0    14.007  -10.868286   -8.494345    4.727675
  94 H     1.0000    0     1.008   -6.214649  -11.967098    3.738586
  95 H     1.0000    0     1.008   -7.193641  -10.714443    0.771914
  96 H     1.0000    0     1.008   -8.803936  -13.356294    2.101744
  97 C     6.0000    0    12.011  -10.284105   -5.616315   -5.234700
  98 C     6.0000    0    12.011   -8.476594   -6.611178   -3.501192
  99 N     7.0000    0    14.007   -7.036739   -7.397783   -2.086688
 100 H     1.0000    0     1.008  -11.153920   -7.152068   -6.293020
 101 H     1.0000    0     1.008   -9.353148   -4.317550   -6.533189
 102 H     1.0000    0     1.008  -11.732425   -4.603163   -4.172919
 103 C     6.0000    0    12.011   14.626831   -2.105624    2.246070
 104 C     6.0000    0    12.011   13.211749    0.177841    2.331627
 105 N     7.0000    0    14.007   12.071951    2.020546    2.419168
 106 H     1.0000    0     1.008   16.012557   -2.004220    0.725049
 107 H     1.0000    0     1.008   13.359821   -3.697616    1.918999
 108 H     1.0000    0     1.008   15.606901   -2.373865    4.036394
 109 C     6.0000    0    12.011    9.810480    4.837936    7.642274
 110 C     6.0000    0    12.011    7.954351    6.725016    7.130545
 111 N     7.0000    0    14.007    6.463394    8.237625    6.706732
 112 H     1.0000    0     1.008   10.476216    4.023724    5.867312
 113 H     1.0000    0     1.008    8.976353    3.353327    8.798185
 114 H     1.0000    0     1.008   11.396925    5.685327    8.643500
 115 C     6.0000    0    12.011    8.033075  -11.149538    1.664721
 116 C     6.0000    0    12.011    9.680942   -9.018303    1.813856
 117 N     7.0000    0    14.007   11.002298   -7.308354    1.954170
 118 H     1.0000    0     1.008    6.107042  -10.514846    1.282882
 119 H     1.0000    0     1.008    8.073904  -12.175509    3.448909
 120 H     1.0000    0     1.008    8.652640  -12.393040    0.146304

--------------------------------
INTERNAL COORDINATES (ANGSTROEM)
--------------------------------
 H      0   0   0     0.000000000000     0.00000000     0.00000000
 H      1   0   0     5.846200387500     0.00000000     0.00000000
 C      2   1   0     5.570612270033    75.11902660     0.00000000
 H      2   1   3     1.782591962714    37.76531290     4.60589314
 H      1   2   3     1.777067861418    37.69268483   176.88447222
 H      4   2   1     1.773073702274    60.08903582   197.42833140
 N      3   2   1     2.567303400365    54.42675040   313.19504649
 H      3   2   1     1.090299095748   106.83101939    55.68180710
 H      3   2   1     1.090843934510   143.42055453   240.08048786
 H      3   2   1     1.089372184360    59.07707969   159.16314687
 N      7   3   2     3.387928077858   113.64758548   255.32879695
 C     11   7   3     1.144197204148   135.23678855    34.09510818
 C      7   3   2     1.145485500447     0.22167658   240.21699808
 C     12  11   7     1.425012660775   179.13253954   155.25533551
 Na    11   7   3     2.345881885236    45.07442101   194.20521906
 N     15  11   7     2.468016466789   105.27466911    91.83807083
 C     16  15  11     1.144388990147   157.91545224   326.06563138
 C     17  16  15     1.426062038579   179.68607619   187.79890362
 H     14  12  11     1.088439842994   109.95256994   109.48154637
 H     14  12  11     1.092062427798   108.69600900   349.37248532
 H     14  12  11     1.088925876389   109.52497222   230.09195482
 N     15  11   7     2.461198918066    85.65707197   184.56684479
 C     22  15  11     1.144281568720   101.99817013   103.27520554
 C     23  22  15     1.423829177620   179.33320790   174.99861519
 H     24  23  22     1.088426907093   109.71894833    43.65689134
 H     24  23  22     1.088599726809   108.98737708   283.30290476
 H     24  23  22     1.088275004577   108.26787253   163.91991801
 H     18  17  16     1.089019411382   108.95020658   208.00357315
 H     18  17  16     1.090023774855   108.81197277    87.95451362
 H     18  17  16     1.088942784024   109.86180070   328.01751917
 N     27  24  23     2.302655349404   146.94485274     9.83950859
 C     31  27  24     1.144721989705   154.18365680   114.99493316
 C      4   2   1     1.088526161919    35.07374037   232.95492900
 C      1   2   3     2.060190145682    46.75962554    71.80407049
 C      5   1   2     1.088452223093    35.35165471   347.31654965
 H     35   5   1     1.091071163391   109.57375944   120.07146435
 N     34   1   2     1.144128235541   149.66008971   189.07084301
 C     37  34   1     3.357683659240   112.55946104   340.44007474
 C     38  37  34     1.425592115409    87.25658261   261.00060492
 N     39  38  37     1.146294068935   179.30800511   164.33666149
 H     38  37  34     1.089850761142    55.98558631   145.86053126
 H     38  37  34     1.089798957207    69.23178342    13.32745910
 H     38  37  34     1.088880591967   161.88372831   103.09846272
 C     22  15  11     3.476224374895    90.50735007   305.34604998
 C     44  22  15     1.425493986978   125.22665409   354.69727529
 N     45  44  22     1.146338260764   179.10898532   208.10091909
 H     44  22  15     1.088834485320    96.67222619   235.03482273
 H     44  22  15     1.089926407692    16.90850480    15.48140525
 H     44  22  15     1.088825042214   105.10990256   122.80888130
 C     10   3   2     4.101458040757   142.80055164    90.07546980
 C     50  10   3     1.423943524041    32.69586700   226.60115553
 N     51  50  10     1.147159220018   179.69445041    19.00823965
 H     50  10   3     1.089207612903   129.34652024   164.62194189
 H     50  10   3     1.089429153134    77.50800475    59.38169777
 H     50  10   3     1.091543810421   114.96673701   313.56520219
 C     46  45  44     3.296958660480   152.58962763   206.44406602
 C     56  46  45     1.427809309091   108.20461519   320.73445308
 N     57  56  46     1.145825858510   179.89203559   182.28061149
 H     56  46  45     1.089139594661   109.84576646    80.36569942
 H     56  46  45     1.089159762870   110.22745563   201.01719435
 H     56  46  45     1.091419726406     0.99919024   147.22408054
 C     49  44  22     8.187090371111   155.79254786    80.52988177
 C     62  49  44     1.430972175505    34.22237823   255.33213481
 N     63  62  49     1.144783546851   179.91614976   131.81090900
 H     62  49  44     1.089354204866    76.59320148    59.15661055
 H     62  49  44     1.089448449919   131.33781874   314.86183915
 H     62  49  44     1.089408787825   113.45865567   164.84711062
 C     36  35   5     3.206480552877   107.41512024   279.39875460
 C     68  36  35     1.422617431873    82.24982902   265.91225931
 N     69  68  36     1.147434610784   178.99980207   354.74448778
 H     68  36  35     1.088848778244   159.42107165   138.18032203
 H     68  36  35     1.089847613765    49.71553370   143.21118486
 H     68  36  35     1.091775594915    80.56435189    16.92475660
 C     36  35   5     3.314784138052   101.56826226   178.19717476
 C     74  36  35     1.426339129825   174.27336192    22.60307026
 N     75  74  36     1.146021615754   178.98014274    51.75920632
 H     74  36  35     1.089012974040    67.77227430   323.47118957
 H     74  36  35     1.090143401295    67.72272983    88.27196163
 H     74  36  35     1.088533580120    75.98019355   205.92206378
 C     10   3   2     3.238100485686   103.24386331   299.91339406
 C     80  10   3     1.423486679136   103.53470992    42.84832281
 N     81  80  10     1.146959603498   179.48127533    95.92739801
 H     80  10   3     1.089187060193   144.40009782   201.36248117
 H     80  10   3     1.089511672260    70.10346219   297.58941965
 H     80  10   3     1.090252672013    44.98718806   147.23057825
 C     70  69  68     3.377912256054   124.89903224   278.74988246
 C     86  70  69     1.426723796946   105.14453962    45.39393107
 N     87  86  70     1.145904392352   179.42320351    38.55648506
 H     86  70  69     1.091367932609     6.35369202   275.05709943
 H     86  70  69     1.089342441975   106.93826345   161.42451619
 H     86  70  69     1.088995097499   115.86547975   284.02313783
 C      1   2   3     3.558937305229   134.01068458   160.40295941
 C     92   1   2     1.428092961258    55.01698152    87.17467959
 N     93  92   1     1.145724586809   178.75952004    13.01028190
 H     92   1   2     1.089096605028    98.64398126   339.03154501
 H     92   1   2     1.091124644589    61.90329699   231.41116686
 H     92   1   2     1.088955263942   151.53094212   152.04801666
 C     78  74  36     3.080329291775   119.06739584   231.40855771
 C     98  78  74     1.426021734744    75.88731132    84.84737828
 N     99  98  78     1.146343962223   179.25850912    45.15498417
 H     98  78  74     1.089019955084   168.92955223   207.15038083
 H     98  78  74     1.089584295789    76.07865121   330.10797352
 H     98  78  74     1.091117543682    59.38028907   207.10756386
 C     64  63  62     3.360285315658   163.80117776    11.91075252
 C    104  64  63     1.422295044039   113.41605085   151.61617379
 N    105 104  64     1.147517685967   179.50816011   231.23530665
 H    104  64  63     1.090159566104     6.92749169   209.60200666
 H    104  64  63     1.090506746866   112.36040998   276.78926260
 H    104  64  63     1.089353179169   102.25657794    33.82903582
 C    106 105 104     3.360703364401   126.68010736   349.41264908
 C    110 106 105     1.426635897923   113.55196579   194.93626885
 N    111 110 106     1.146075738600   179.65190764     6.27064208
 H    110 106 105     1.091778120638     4.03228766   184.99718269
 H    110 106 105     1.089123539708   106.63146071   315.51613665
 H    110 106 105     1.089299689267   107.95143897    73.26011767
 C     40  39  38     3.303445770785   138.13739882    81.39222639
 C    116  40  39     1.427785530513   114.46423953    60.30206610
 N    117 116  40     1.145957961243   179.45332183    97.59082881
 H    116  40  39     1.091983507117     4.82408524    50.09541153
 H    116  40  39     1.089335565932   106.26169575   181.27014879
 H    116  40  39     1.089096297009   107.55810594   298.36152596

---------------------------
INTERNAL COORDINATES (A.U.)
---------------------------
 H      0   0   0     0.000000000000     0.00000000     0.00000000
 H      1   0   0    11.047717656399     0.00000000     0.00000000
 C      2   1   0    10.526931588624    75.11902660     0.00000000
 H      2   1   3     3.368610618058    37.76531290     4.60589314
 H      1   2   3     3.358171579473    37.69268483   176.88447222
 H      4   2   1     3.350623712555    60.08903582   197.42833140
 N      3   2   1     4.851500329374    54.42675040   313.19504649
 H      3   2   1     2.060366695025   106.83101939    55.68180710
 H      3   2   1     2.061396291073   143.42055453   240.08048786
 H      3   2   1     2.058615086352    59.07707969   159.16314687
 N      7   3   2     6.402256228574   113.64758548   255.32879695
 C     11   7   3     2.162219359038   135.23678855    34.09510818
 C      7   3   2     2.164653886222     0.22167658   240.21699808
 C     12  11   7     2.692883666236   179.13253954   155.25533551
 Na    11   7   3     4.433074305623    45.07442101   194.20521906
 N     15  11   7     4.663875216240   105.27466911    91.83807083
 C     16  15  11     2.162581782053   157.91545224   326.06563138
 C     17  16  15     2.694866702895   179.68607619   187.79890362
 H     14  12  11     2.056853216508   109.95256994   109.48154637
 H     14  12  11     2.063698909683   108.69600900   349.37248532
 H     14  12  11     2.057771686516   109.52497222   230.09195482
 N     15  11   7     4.650991916248    85.65707197   184.56684479
 C     22  15  11     2.162378784975   101.99817013   103.27520554
 C     23  22  15     2.690647207188   179.33320790   174.99861519
 H     24  23  22     2.056828771197   109.71894833    43.65689134
 H     24  23  22     2.057155353131   108.98737708   283.30290476
 H     24  23  22     2.056541717042   108.26787253   163.91991801
 H     18  17  16     2.057948442036   108.95020658   208.00357315
 H     18  17  16     2.059846413938   108.81197277    87.95451362
 H     18  17  16     2.057803637315   109.86180070   328.01751917
 N     27  24  23     4.351387991182   146.94485274     9.83950859
 C     31  27  24     2.163211060019   154.18365680   114.99493316
 C      4   2   1     2.057016335636    35.07374037   232.95492900
 C      1   2   3     3.893195159143    46.75962554    71.80407049
 C      5   1   2     2.056876611503    35.35165471   347.31654965
 H     35   5   1     2.061825691427   109.57375944   120.07146435
 N     34   1   2     2.162089027259   149.66008971   189.07084301
 C     37  34   1     6.345102560305   112.55946104   340.44007474
 C     38  37  34     2.693978676801    87.25658261   261.00060492
 N     39  38  37     2.166181859225   179.30800511   164.33666149
 H     38  37  34     2.059519465404    55.98558631   145.86053126
 H     38  37  34     2.059421570154    69.23178342    13.32745910
 H     38  37  34     2.057686111360   161.88372831   103.09846272
 C     22  15  11     6.569112048612    90.50735007   305.34604998
 C     44  22  15     2.693793240940   125.22665409   354.69727529
 N     45  44  22     2.166265369680   179.10898532   208.10091909
 H     44  22  15     2.057598982425    96.67222619   235.03482273
 H     44  22  15     2.059662416667    16.90850480    15.48140525
 H     44  22  15     2.057581137540   105.10990256   122.80888130
 C     10   3   2     7.750632446800   142.80055164    90.07546980
 C     50  10   3     2.690863290609    32.69586700   226.60115553
 N     51  50  10     2.167816757836   179.69445041    19.00823965
 H     50  10   3     2.058304091369   129.34652024   164.62194189
 H     50  10   3     2.058722741734    77.50800475    59.38169777
 H     50  10   3     2.062718864873   114.96673701   313.56520219
 C     46  45  44     6.230348943167   152.58962763   206.44406602
 C     56  46  45     2.698168565644   108.20461519   320.73445308
 N     57  56  46     2.165297069748   179.89203559   182.28061149
 H     56  46  45     2.058175555519   109.84576646    80.36569942
 H     56  46  45     2.058213667910   110.22745563   201.01719435
 H     56  46  45     2.062484380066     0.99919024   147.22408054
 C     49  44  22    15.471358635064   155.79254786    80.52988177
 C     62  49  44     2.704145516966    34.22237823   255.33213481
 N     63  62  49     2.163327386167   179.91614976   131.81090900
 H     62  49  44     2.058581110032    76.59320148    59.15661055
 H     62  49  44     2.058759207372   131.33781874   314.86183915
 H     62  49  44     2.058684256876   113.45865567   164.84711062
 C     36  35   5     6.059370098682   107.41512024   279.39875460
 C     68  36  35     2.688357339583    82.24982902   265.91225931
 N     69  68  36     2.168337170965   178.99980207   354.74448778
 H     68  36  35     2.057625992137   159.42107165   138.18032203
 H     68  36  35     2.059513517723    49.71553370   143.21118486
 H     68  36  35     2.063156874087    80.56435189    16.92475660
 C     36  35   5     6.264034213984   101.56826226   178.19717476
 C     74  36  35     2.695390329465   174.27336192    22.60307026
 N     75  74  36     2.165666997329   178.98014274    51.75920632
 H     74  36  35     2.057936277223    67.77227430   323.47118957
 H     74  36  35     2.060072475149    67.72272983    88.27196163
 H     74  36  35     2.057030354004    75.98019355   205.92206378
 C     10   3   2     6.119123112063   103.24386331   299.91339406
 C     80  10   3     2.689999978851   103.53470992    42.84832281
 N     81  80  10     2.167439537282   179.48127533    95.92739801
 H     80  10   3     2.058265252376   144.40009782   201.36248117
 H     80  10   3     2.058878680281    70.10346219   297.58941965
 H     80  10   3     2.060278966880    44.98718806   147.23057825
 C     70  69  68     6.383329068359   124.89903224   278.74988246
 C     86  70  69     2.696117244975   105.14453962    45.39393107
 N     87  86  70     2.165445477202   179.42320351    38.55648506
 H     86  70  69     2.062386503975     6.35369202   275.05709943
 H     86  70  69     2.058558881390   106.93826345   161.42451619
 H     86  70  69     2.057902495456   115.86547975   284.02313783
 C      1   2   3     6.725416834679   134.01068458   160.40295941
 C     92   1   2     2.698704590558    55.01698152    87.17467959
 N     93  92   1     2.165105693970   178.75952004    13.01028190
 H     92   1   2     2.058094316887    98.64398126   339.03154501
 H     92   1   2     2.061926756246    61.90329699   231.41116686
 H     92   1   2     2.057827220942   151.53094212   152.04801666
 C     78  74  36     5.820978763751   119.06739584   231.40855771
 C     98  78  74     2.694790539685    75.88731132    84.84737828
 N     99  98  78     2.166276143876   179.25850912    45.15498417
 H     98  78  74     2.057949469484   168.92955223   207.15038083
 H     98  78  74     2.059015918862    76.07865121   330.10797352
 H     98  78  74     2.061913337477    59.38028907   207.10756386
 C     64  63  62     6.350018978431   163.80117776    11.91075252
 C    104  64  63     2.687748114867   113.41605085   151.61617379
 N    105 104  64     2.168494160309   179.50816011   231.23530665
 H    104  64  63     2.060103022212     6.92749169   209.60200666
 H    104  64  63     2.060759098770   112.36040998   276.78926260
 H    104  64  63     2.058579171745   102.25657794    33.82903582
 C    106 105 104     6.350808976066   126.68010736   349.41264908
 C    110 106 105     2.695951139895   113.55196579   194.93626885
 N    111 110 106     2.165769274685   179.65190764     6.27064208
 H    110 106 105     2.063161647014     4.03228766   184.99718269
 H    110 106 105     2.058145216055   106.63146071   315.51613665
 H    110 106 105     2.058478090481   107.95143897    73.26011767
 C     40  39  38     6.242607805044   138.13739882    81.39222639
 C    116  40  39     2.698123630645   114.46423953    60.30206610
 N    117 116  40     2.165546707736   179.45332183    97.59082881
 H    116  40  39     2.063549771211     4.82408524    50.09541153
 H    116  40  39     2.058545887552   106.26169575   181.27014879
 H    116  40  39     2.058093734815   107.55810594   298.36152596

---------------------
BASIS SET INFORMATION
---------------------
There are 4 groups of distinct atoms

 Group   1 Type H   : 4s1p contracted to 2s1p pattern {31/1}
 Group   2 Type C   : 11s6p1d contracted to 5s3p1d pattern {62111/411/1}
 Group   3 Type N   : 11s6p2d contracted to 5s3p2d pattern {62111/411/11}
 Group   4 Type Na  : 14s7p contracted to 5s3p pattern {73211/511}

Atom   0H    basis set group =>   1
Atom   1H    basis set group =>   1
Atom   2C    basis set group =>   2
Atom   3H    basis set group =>   1
Atom   4H    basis set group =>   1
Atom   5H    basis set group =>   1
Atom   6N    basis set group =>   3
Atom   7H    basis set group =>   1
Atom   8H    basis set group =>   1
Atom   9H    basis set group =>   1
Atom  10N    basis set group =>   3
Atom  11C    basis set group =>   2
Atom  12C    basis set group =>   2
Atom  13C    basis set group =>   2
Atom  14Na   basis set group =>   4
Atom  15N    basis set group =>   3
Atom  16C    basis set group =>   2
Atom  17C    basis set group =>   2
Atom  18H    basis set group =>   1
Atom  19H    basis set group =>   1
Atom  20H    basis set group =>   1
Atom  21N    basis set group =>   3
Atom  22C    basis set group =>   2
Atom  23C    basis set group =>   2
Atom  24H    basis set group =>   1
Atom  25H    basis set group =>   1
Atom  26H    basis set group =>   1
Atom  27H    basis set group =>   1
Atom  28H    basis set group =>   1
Atom  29H    basis set group =>   1
Atom  30N    basis set group =>   3
Atom  31C    basis set group =>   2
Atom  32C    basis set group =>   2
Atom  33C    basis set group =>   2
Atom  34C    basis set group =>   2
Atom  35H    basis set group =>   1
Atom  36N    basis set group =>   3
Atom  37C    basis set group =>   2
Atom  38C    basis set group =>   2
Atom  39N    basis set group =>   3
Atom  40H    basis set group =>   1
Atom  41H    basis set group =>   1
Atom  42H    basis set group =>   1
Atom  43C    basis set group =>   2
Atom  44C    basis set group =>   2
Atom  45N    basis set group =>   3
Atom  46H    basis set group =>   1
Atom  47H    basis set group =>   1
Atom  48H    basis set group =>   1
Atom  49C    basis set group =>   2
Atom  50C    basis set group =>   2
Atom  51N    basis set group =>   3
Atom  52H    basis set group =>   1
Atom  53H    basis set group =>   1
Atom  54H    basis set group =>   1
Atom  55C    basis set group =>   2
Atom  56C    basis set group =>   2
Atom  57N    basis set group =>   3
Atom  58H    basis set group =>   1
Atom  59H    basis set group =>   1
Atom  60H    basis set group =>   1
Atom  61C    basis set group =>   2
Atom  62C    basis set group =>   2
Atom  63N    basis set group =>   3
Atom  64H    basis set group =>   1
Atom  65H    basis set group =>   1
Atom  66H    basis set group =>   1
Atom  67C    basis set group =>   2
Atom  68C    basis set group =>   2
Atom  69N    basis set group =>   3
Atom  70H    basis set group =>   1
Atom  71H    basis set group =>   1
Atom  72H    basis set group =>   1
Atom  73C    basis set group =>   2
Atom  74C    basis set group =>   2
Atom  75N    basis set group =>   3
Atom  76H    basis set group =>   1
Atom  77H    basis set group =>   1
Atom  78H    basis set group =>   1
Atom  79C    basis set group =>   2
Atom  80C    basis set group =>   2
Atom  81N    basis set group =>   3
Atom  82H    basis set group =>   1
Atom  83H    basis set group =>   1
Atom  84H    basis set group =>   1
Atom  85C    basis set group =>   2
Atom  86C    basis set group =>   2
Atom  87N    basis set group =>   3
Atom  88H    basis set group =>   1
Atom  89H    basis set group =>   1
Atom  90H    basis set group =>   1
Atom  91C    basis set group =>   2
Atom  92C    basis set group =>   2
Atom  93N    basis set group =>   3
Atom  94H    basis set group =>   1
Atom  95H    basis set group =>   1
Atom  96H    basis set group =>   1
Atom  97C    basis set group =>   2
Atom  98C    basis set group =>   2
Atom  99N    basis set group =>   3
Atom 100H    basis set group =>   1
Atom 101H    basis set group =>   1
Atom 102H    basis set group =>   1
Atom 103C    basis set group =>   2
Atom 104C    basis set group =>   2
Atom 105N    basis set group =>   3
Atom 106H    basis set group =>   1
Atom 107H    basis set group =>   1
Atom 108H    basis set group =>   1
Atom 109C    basis set group =>   2
Atom 110C    basis set group =>   2
Atom 111N    basis set group =>   3
Atom 112H    basis set group =>   1
Atom 113H    basis set group =>   1
Atom 114H    basis set group =>   1
Atom 115C    basis set group =>   2
Atom 116C    basis set group =>   2
Atom 117N    basis set group =>   3
Atom 118H    basis set group =>   1
Atom 119H    basis set group =>   1
Atom 120H    basis set group =>   1
---------------------------------
AUXILIARY/J BASIS SET INFORMATION
---------------------------------
There are 4 groups of distinct atoms

 Group   1 Type H   : 5s2p1d contracted to 3s1p1d pattern {311/2/1}
 Group   2 Type C   : 12s5p4d2f1g contracted to 6s4p3d1f1g pattern {711111/2111/211/2/1}
 Group   3 Type N   : 12s5p4d2f1g contracted to 6s4p3d1f1g pattern {711111/2111/211/2/1}
 Group   4 Type Na  : 14s5p5d2f1g contracted to 8s4p4d1f1g pattern {71111111/2111/2111/2/1}

Atom   0H    basis set group =>   1
Atom   1H    basis set group =>   1
Atom   2C    basis set group =>   2
Atom   3H    basis set group =>   1
Atom   4H    basis set group =>   1
Atom   5H    basis set group =>   1
Atom   6N    basis set group =>   3
Atom   7H    basis set group =>   1
Atom   8H    basis set group =>   1
Atom   9H    basis set group =>   1
Atom  10N    basis set group =>   3
Atom  11C    basis set group =>   2
Atom  12C    basis set group =>   2
Atom  13C    basis set group =>   2
Atom  14Na   basis set group =>   4
Atom  15N    basis set group =>   3
Atom  16C    basis set group =>   2
Atom  17C    basis set group =>   2
Atom  18H    basis set group =>   1
Atom  19H    basis set group =>   1
Atom  20H    basis set group =>   1
Atom  21N    basis set group =>   3
Atom  22C    basis set group =>   2
Atom  23C    basis set group =>   2
Atom  24H    basis set group =>   1
Atom  25H    basis set group =>   1
Atom  26H    basis set group =>   1
Atom  27H    basis set group =>   1
Atom  28H    basis set group =>   1
Atom  29H    basis set group =>   1
Atom  30N    basis set group =>   3
Atom  31C    basis set group =>   2
Atom  32C    basis set group =>   2
Atom  33C    basis set group =>   2
Atom  34C    basis set group =>   2
Atom  35H    basis set group =>   1
Atom  36N    basis set group =>   3
Atom  37C    basis set group =>   2
Atom  38C    basis set group =>   2
Atom  39N    basis set group =>   3
Atom  40H    basis set group =>   1
Atom  41H    basis set group =>   1
Atom  42H    basis set group =>   1
Atom  43C    basis set group =>   2
Atom  44C    basis set group =>   2
Atom  45N    basis set group =>   3
Atom  46H    basis set group =>   1
Atom  47H    basis set group =>   1
Atom  48H    basis set group =>   1
Atom  49C    basis set group =>   2
Atom  50C    basis set group =>   2
Atom  51N    basis set group =>   3
Atom  52H    basis set group =>   1
Atom  53H    basis set group =>   1
Atom  54H    basis set group =>   1
Atom  55C    basis set group =>   2
Atom  56C    basis set group =>   2
Atom  57N    basis set group =>   3
Atom  58H    basis set group =>   1
Atom  59H    basis set group =>   1
Atom  60H    basis set group =>   1
Atom  61C    basis set group =>   2
Atom  62C    basis set group =>   2
Atom  63N    basis set group =>   3
Atom  64H    basis set group =>   1
Atom  65H    basis set group =>   1
Atom  66H    basis set group =>   1
Atom  67C    basis set group =>   2
Atom  68C    basis set group =>   2
Atom  69N    basis set group =>   3
Atom  70H    basis set group =>   1
Atom  71H    basis set group =>   1
Atom  72H    basis set group =>   1
Atom  73C    basis set group =>   2
Atom  74C    basis set group =>   2
Atom  75N    basis set group =>   3
Atom  76H    basis set group =>   1
Atom  77H    basis set group =>   1
Atom  78H    basis set group =>   1
Atom  79C    basis set group =>   2
Atom  80C    basis set group =>   2
Atom  81N    basis set group =>   3
Atom  82H    basis set group =>   1
Atom  83H    basis set group =>   1
Atom  84H    basis set group =>   1
Atom  85C    basis set group =>   2
Atom  86C    basis set group =>   2
Atom  87N    basis set group =>   3
Atom  88H    basis set group =>   1
Atom  89H    basis set group =>   1
Atom  90H    basis set group =>   1
Atom  91C    basis set group =>   2
Atom  92C    basis set group =>   2
Atom  93N    basis set group =>   3
Atom  94H    basis set group =>   1
Atom  95H    basis set group =>   1
Atom  96H    basis set group =>   1
Atom  97C    basis set group =>   2
Atom  98C    basis set group =>   2
Atom  99N    basis set group =>   3
Atom 100H    basis set group =>   1
Atom 101H    basis set group =>   1
Atom 102H    basis set group =>   1
Atom 103C    basis set group =>   2
Atom 104C    basis set group =>   2
Atom 105N    basis set group =>   3
Atom 106H    basis set group =>   1
Atom 107H    basis set group =>   1
Atom 108H    basis set group =>   1
Atom 109C    basis set group =>   2
Atom 110C    basis set group =>   2
Atom 111N    basis set group =>   3
Atom 112H    basis set group =>   1
Atom 113H    basis set group =>   1
Atom 114H    basis set group =>   1
Atom 115C    basis set group =>   2
Atom 116C    basis set group =>   2
Atom 117N    basis set group =>   3
Atom 118H    basis set group =>   1
Atom 119H    basis set group =>   1
Atom 120H    basis set group =>   1


           ************************************************************
           *        Program running with 8 parallel MPI-processes     *
           *              working on a common directory               *
           ************************************************************
------------------------------------------------------------------------------
                           ORCA GTO INTEGRAL CALCULATION
                           -- RI-GTO INTEGRALS CHOSEN --
------------------------------------------------------------------------------
------------------------------------------------------------------------------
                   ___                                                        
                  /   \      - P O W E R E D   B Y -                         
                 /     \                                                     
                 |  |  |   _    _      __       _____    __    __             
                 |  |  |  | |  | |    /  \     |  _  \  |  |  /  |          
                  \  \/   | |  | |   /    \    | | | |  |  | /  /          
                 / \  \   | |__| |  /  /\  \   | |_| |  |  |/  /          
                |  |  |   |  __  | /  /__\  \  |    /   |      \           
                |  |  |   | |  | | |   __   |  |    \   |  |\   \          
                \     /   | |  | | |  |  |  |  | |\  \  |  | \   \       
                 \___/    |_|  |_| |__|  |__|  |_| \__\ |__|  \__/        
                                                                              
                      - O R C A' S   B I G   F R I E N D -                    
                                      &                                       
                       - I N T E G R A L  F E E D E R -                       
                                                                              
 v1 FN, 2020, v2 2021                                                         
------------------------------------------------------------------------------


Reading SHARK input file ORCA.SHARKINP.tmp ... ok
----------------------
SHARK INTEGRAL PACKAGE
----------------------

Number of atoms                             ...    121
Number of basis functions                   ...   1554
Number of shells                            ...    748
Maximum angular momentum                    ...      2
Integral batch strategy                     ... SHARK/LIBINT Hybrid
RI-J (if used) integral strategy            ... SPLIT-RIJ (Revised 2003 algorithm where possible)
Printlevel                                  ...      1
Contraction scheme used                     ... SEGMENTED contraction
Coulomb Range Separation                    ... NOT USED
Exchange Range Separation                   ... NOT USED
Finite Nucleus Model                        ... NOT USED
Auxiliary Coulomb fitting basis             ... AVAILABLE
   # of basis functions in Aux-J            ...   3656
   # of shells in Aux-J                     ...   1218
   Maximum angular momentum in Aux-J        ...      4
Auxiliary J/K fitting basis                 ... NOT available
Auxiliary Correlation fitting basis         ... NOT available
Auxiliary 'external' fitting basis          ... NOT available
Integral threshold                          ...     2.500000e-11
Primitive cut-off                           ...     2.500000e-12
Primitive pair pre-selection threshold      ...     2.500000e-12

Calculating pre-screening integrals         ... done (  0.1 sec) Dimension = 748
Organizing shell pair data                  ... done (  0.6 sec)
Shell pair information
Total number of shell pairs                 ...    280126
Shell pairs after pre-screening             ...    107165
Total number of primitive shell pairs       ...   1011866
Primitive shell pairs kept                  ...    210132
          la=0 lb=0:  32488 shell pairs
          la=1 lb=0:  41052 shell pairs
          la=1 lb=1:  13101 shell pairs
          la=2 lb=0:  11714 shell pairs
          la=2 lb=1:   7691 shell pairs
          la=2 lb=2:   1119 shell pairs

Calculating one electron integrals          ... done (  0.2 sec)
Calculating RI/J V-Matrix + Cholesky decomp.... done (  0.6 sec)
Calculating Nuclear repulsion               ... done (  0.0 sec) ENN=   8569.997361945816 Eh

SHARK setup successfully completed in   2.3 seconds

Maximum memory used throughout the entire GTOINT-calculation: 171.6 MB


           ************************************************************
           *        Program running with 8 parallel MPI-processes     *
           *              working on a common directory               *
           ************************************************************
-------------------------------------------------------------------------------
                                 ORCA SCF
-------------------------------------------------------------------------------

------------
SCF SETTINGS
------------
Hamiltonian:
 Density Functional     Method          .... DFT(GTOs)
  Functional kind                       .... Exchange
  Functional name                       .... Re-regularized SCAN exchange by Furness et al
  Functional family                     .... MGGA
  Functional refs                              
    [ 0] J. W. Furness, A. D. Kaplan, J. Ning, J. P. Perdew, and J. Sun, J. Phys. Chem. Lett. 11, 8208 (2020)
    [ 1] J. W. Furness, A. D. Kaplan, J. Ning, J. P. Perdew, and J. Sun, J. Phys. Chem. Lett. 11, 9248 (2020)
  Functional external parameters         .... 8
 Parameter  0 :         c1 parameter
 Parameter  1 :         c2 parameter
 Parameter  2 :          d parameter
 Parameter  3 :         k1 parameter
 Parameter  4 :       taur parameter
 Parameter  5 :     alphar parameter
 Parameter  6 :        eta parameter
 Parameter  7 :        dp2 parameter
  Functional kind                       .... Correlation
  Functional name                       .... Re-regularized SCAN correlation by Furness et al
  Functional family                     .... MGGA
  Functional refs                              
    [ 0] J. W. Furness, A. D. Kaplan, J. Ning, J. P. Perdew, and J. Sun, J. Phys. Chem. Lett. 11, 8208 (2020)
    [ 1] J. W. Furness, A. D. Kaplan, J. Ning, J. P. Perdew, and J. Sun, J. Phys. Chem. Lett. 11, 9248 (2020)
  Functional external parameters         .... 0
 Gradients option       PostSCFGGA      .... off
   Density functional embedding theory  .... OFF
 RI-approximation to the Coulomb term is turned on
   Number of AuxJ basis functions       .... 3656


General Settings:
 Integral files         IntName         .... ORCA
 Hartree-Fock type      HFTyp           .... RHF
 Total Charge           Charge          ....    1
 Multiplicity           Mult            ....    1
 Number of Electrons    NEL             ....  450
 Basis Dimension        Dim             .... 1554
 Nuclear Repulsion      ENuc            ....   8569.9973619458 Eh

Convergence Acceleration:
 DIIS                   CNVDIIS         .... on
   Start iteration      DIISMaxIt       ....    12
   Startup error        DIISStart       ....  0.200000
   # of expansion vecs  DIISMaxEq       ....     5
   Bias factor          DIISBfac        ....   1.050
   Max. coefficient     DIISMaxC        ....  10.000
 Trust-Rad. Augm. Hess. CNVTRAH         .... auto
   Auto Start mean grad. ratio tolernc. ....  1.125000
   Auto Start start iteration           ....    20
   Auto Start num. interpolation iter.  ....    10
   Max. Number of Micro iterations      ....    16
   Max. Number of Macro iterations      .... Maxiter - #DIIS iter
   Number of Davidson start vectors     ....     2
   Converg. threshold I  (grad. norm)   ....   1.000e-05
   Converg. threshold II (energy diff.) ....   1.000e-08
   Grad. Scal. Fac. for Micro threshold ....   0.100
   Minimum threshold for Micro iter.    ....   0.010
   NR start threshold (gradient norm)   ....   0.001
   Initial trust radius                 ....   0.400
   Minimum AH scaling param. (alpha)    ....   1.000
   Maximum AH scaling param. (alpha)    .... 1000.000
   Orbital update algorithm             .... Taylor
   White noise on init. David. guess    .... on
   Maximum white noise                  ....   0.010
   Quad. conv. algorithm                .... NR
   COSX micro iterations for RIJONX calc.... off
 SOSCF                  CNVSOSCF        .... on
   Start iteration      SOSCFMaxIt      ....   150
   Startup grad/error   SOSCFStart      ....  0.003300
 Level Shifting         CNVShift        .... on
   Level shift para.    LevelShift      ....    0.2500
   Turn off err/grad.   ShiftErr        ....    0.0010
 Zerner damping         CNVZerner       .... off
 Static damping         CNVDamp         .... on
   Fraction old density DampFac         ....    0.7000
   Max. Damping (<1)    DampMax         ....    0.9800
   Min. Damping (>=0)   DampMin         ....    0.0000
   Turn off err/grad.   DampErr         ....    0.1000
 Fernandez-Rico         CNVRico         .... off

SCF Procedure:
 Maximum # iterations   MaxIter         ....   125
 SCF integral mode      SCFMode         .... Direct
   Integral package                     .... SHARK and LIBINT hybrid scheme
 Reset frequency        DirectResetFreq ....    20
 Integral Threshold     Thresh          ....  2.500e-11 Eh
 Primitive CutOff       TCut            ....  2.500e-12 Eh

Convergence Tolerance:
 Convergence Check Mode ConvCheckMode   .... Total+1el-Energy
 Convergence forced     ConvForced      .... 0
 Energy Change          TolE            ....  1.000e-08 Eh
 1-El. energy change                    ....  1.000e-05 Eh
 Orbital Gradient       TolG            ....  1.000e-05
 Orbital Rotation angle TolX            ....  1.000e-05
 DIIS Error             TolErr          ....  5.000e-07


Diagonalization of the overlap matrix:
Smallest eigenvalue                        ... 6.690e-05
Time for diagonalization                   ...    6.864 sec
Threshold for overlap eigenvalues          ... 1.000e-08
Number of eigenvalues below threshold      ... 0
Time for construction of square roots      ...    0.239 sec
Total time needed                          ...    7.308 sec

Time for model grid setup =    2.016 sec

------------------------------
INITIAL GUESS: MODEL POTENTIAL
------------------------------
Loading Hartree-Fock densities                     ... done
Calculating cut-offs                               ... done
Initializing the effective Hamiltonian             ... done
Setting up the integral package (SHARK)            ... done
Starting the Coulomb interaction                   ... done (   2.8 sec)
Reading the grid                                   ... done
Mapping shells                                     ... done
Starting the XC term evaluation                    ... done (   0.6 sec)
  promolecular density results
     # of electrons  =    450.977419373
     EX              =   -365.751697136
     EC              =    -14.453977169
     EX+EC           =   -380.205674305
Transforming the Hamiltonian                       ... done (   0.1 sec)
Diagonalizing the Hamiltonian                      ... done (   0.3 sec)
Back transforming the eigenvectors                 ... done (   0.1 sec)
Now organizing SCF variables                       ... done
                      ------------------
                      INITIAL GUESS DONE (   6.1 sec)
                      ------------------
-------------------
DFT GRID GENERATION
-------------------

General Integration Accuracy     IntAcc      ... 4.959
Radial Grid Type                 RadialGrid  ... OptM3 with GC (2021)
Angular Grid (max. ang.)         AngularGrid ... 6 (Lebedev-590)
Angular grid pruning method      GridPruning ... 4 (adaptive)
Weight generation scheme         WeightScheme... Becke
Basis function cutoff            BFCut       ... 1.0000e-11
Integration weight cutoff        WCut        ... 1.0000e-14
Angular grids for H and He will be reduced by one unit
Partially contracted basis set               ... off
Rotationally invariant grid construction     ... off

Total number of grid points                  ...  1374241
Total number of batches                      ...    21537
Average number of points per batch           ...       63
Average number of grid points per atom       ...    11357
Time for grid setup =   23.892 sec


--------------------
CPCM SOLVATION MODEL
--------------------
CPCM parameters:
  Epsilon                                         ...      35.6880
  Refrac                                          ...       1.3442
  Rsolv                                           ...       1.3000
  Surface type                                    ... GAUSSIAN VDW
  Epsilon function type                           ...         CPCM
Solvent:                                     ... MECN
SMD-CDS solvent descriptors:
  Soln                                       ...    1.3442
  Soln25                                     ...    1.3416
  Sola                                       ...    0.0700
  Solb                                       ...    0.3200
  Solg                                       ...   41.2500
  Solc                                       ...    0.0000
  Solh                                       ...    0.0000
Radii:
 Radius for H  used is    2.2677 Bohr (=   1.2000 Ang.)
 Radius for C  used is    3.4960 Bohr (=   1.8500 Ang.)
 Radius for N  used is    3.5716 Bohr (=   1.8900 Ang.)
 Radius for Na used is    4.2897 Bohr (=   2.2700 Ang.)
Calculating surface                               ...        done! (  0.0s)
GEPOL surface points                              ...         8066
GEPOL Volume                                      ...    7491.8088
GEPOL Surface-area                                ...    4398.4438
Calculating surface distance matrix               ...        done! (  0.7s)
Performing Cholesky decomposition & store         ...        done! (  4.0s)
Overall time for CPCM initialization              ...                 4.7s
--------------
SCF ITERATIONS
--------------
ITER       Energy         Delta-E        Max-DP      RMS-DP      [F,P]     Damp
               ***  Starting incremental Fock matrix formation  ***
  0  -2814.7254671185   0.000000000000 0.04888335  0.00051729  0.2693234 0.7000
  1  -2815.7532235195  -1.027756400938 0.02844625  0.00035724  0.1002050 0.7000
                               ***Turning on DIIS***
  2  -2816.0947737419  -0.341550222386 0.04394257  0.00059708  0.0399307 0.0000
  3  -2816.6956481279  -0.600874386077 0.02472691  0.00029344  0.0454186 0.0000
  4  -2816.8031417104  -0.107493582498 0.01099248  0.00011001  0.0321465 0.0000
  5  -2816.8247529728  -0.021611262316 0.00320452  0.00003403  0.0058156 0.0000
                      *** Initiating the SOSCF procedure ***
                           *** Shutting down DIIS ***
                      *** Re-Reading the Fockian *** 
                      *** Removing any level shift *** 
ITER      Energy       Delta-E        Grad      Rot      Max-DP    RMS-DP
  6  -2816.82562024  -0.0008672667  0.000237  0.000237  0.000961  0.000010
               *** Restarting incremental Fock matrix formation ***
  7  -2816.82567987  -0.0000596317  0.000187  0.000468  0.001073  0.000008
  8  -2816.82562634   0.0000535355  0.000481  0.000409  0.000807  0.000005
  9  -2816.82569098  -0.0000646442  0.000023  0.000045  0.000112  0.000001
 10  -2816.82569053   0.0000004545  0.000031  0.000030  0.000073  0.000001
 11  -2816.82569159  -0.0000010644  0.000014  0.000035  0.000056  0.000001
 12  -2816.82569134   0.0000002493  0.000027  0.000023  0.000035  0.000000
                  ***Gradient check signals convergence***
              ***Rediagonalizing the Fockian in SOSCF/NRSCF***

               *****************************************************
               *                     SUCCESS                       *
               *           SCF CONVERGED AFTER  13 CYCLES          *
               *****************************************************


SMD CDS free energy correction energy :                 9.97744     Kcal/mol
Total Energy after SMD CDS correction =             -2816.809791483 Eh

----------------
TOTAL SCF ENERGY
----------------

Total Energy       :        -2816.80979148 Eh          -76649.29120 eV

Components:
Nuclear Repulsion  :         8569.99736195 Eh          233201.48395 eV
Electronic Energy  :       -11386.80715343 Eh         -309850.77515 eV
One Electron Energy:       -20877.14123627 Eh         -568095.89448 eV
Two Electron Energy:         9490.33408284 Eh          258245.11932 eV
CPCM Dielectric    :           -0.13962235 Eh              -3.79932 eV
SMD CDS (Gcds)     :            0.01590007 Eh               0.43266 eV

Virial components:
Potential Energy   :        -5623.07575804 Eh         -153011.67034 eV
Kinetic Energy     :         2806.26596656 Eh           76362.37914 eV
Virial Ratio       :            2.00375724


DFT components:
N(Alpha)           :      225.000040332803 electrons
N(Beta)            :      225.000040332803 electrons
N(Total)           :      450.000080665605 electrons
E(X)               :     -375.487477127618 Eh       
E(C)               :      -14.207170458640 Eh       
E(XC)              :     -389.694647586258 Eh       
DFET-embed. en.    :        0.000000000000 Eh       
CPCM Solvation Model Properties:
Surface-charge          :           -1.06897449
Charge-correction       :            0.00406549 Eh               0.11063 eV
Free-energy (cav+disp)  :            0.01590007 Eh               0.43266 eV

---------------
SCF CONVERGENCE
---------------

  Last Energy change         ...   -2.1044e-07  Tolerance :   1.0000e-08
  Last MAX-Density change    ...    2.3953e-05  Tolerance :   1.0000e-07
  Last RMS-Density change    ...    1.3069e-07  Tolerance :   5.0000e-09
  Last Orbital Gradient      ...    1.0174e-06  Tolerance :   1.0000e-05
  Last Orbital Rotation      ...    1.2974e-06  Tolerance :   1.0000e-05

             **** THE GBW FILE WAS UPDATED (ORCA.gbw) ****
             **** DENSITY ORCA.scfp WAS UPDATED ****
             **** ENERGY FILE WAS UPDATED (ORCA.en.tmp) ****
             **** THE GBW FILE WAS UPDATED (ORCA.gbw) ****
             **** DENSITY ORCA.scfp WAS UPDATED ****
----------------
ORBITAL ENERGIES
----------------

  NO   OCC          E(Eh)            E(eV) 
   0   2.0000     -38.170044     -1038.6597 
   1   2.0000     -14.163944      -385.4205 
   2   2.0000     -14.162900      -385.3921 
   3   2.0000     -14.162365      -385.3775 
   4   2.0000     -14.160476      -385.3261 
   5   2.0000     -14.159644      -385.3035 
   6   2.0000     -14.159499      -385.2996 
   7   2.0000     -14.158743      -385.2790 
   8   2.0000     -14.158724      -385.2785 
   9   2.0000     -14.158691      -385.2776 
  10   2.0000     -14.158283      -385.2665 
  11   2.0000     -14.158255      -385.2657 
  12   2.0000     -14.158122      -385.2621 
  13   2.0000     -14.158074      -385.2608 
  14   2.0000     -14.157985      -385.2584 
  15   2.0000     -14.157145      -385.2355 
  16   2.0000     -14.157139      -385.2353 
  17   2.0000     -14.157004      -385.2317 
  18   2.0000     -14.156917      -385.2293 
  19   2.0000     -14.156800      -385.2261 
  20   2.0000     -14.156579      -385.2201 
  21   2.0000     -10.089157      -274.5399 
  22   2.0000     -10.089053      -274.5371 
  23   2.0000     -10.088932      -274.5338 
  24   2.0000     -10.086741      -274.4742 
  25   2.0000     -10.084703      -274.4187 
  26   2.0000     -10.084228      -274.4058 
  27   2.0000     -10.083805      -274.3943 
  28   2.0000     -10.083498      -274.3859 
  29   2.0000     -10.083471      -274.3852 
  30   2.0000     -10.082779      -274.3664 
  31   2.0000     -10.082638      -274.3625 
  32   2.0000     -10.082307      -274.3535 
  33   2.0000     -10.082283      -274.3529 
  34   2.0000     -10.082122      -274.3485 
  35   2.0000     -10.082099      -274.3479 
  36   2.0000     -10.081331      -274.3270 
  37   2.0000     -10.081295      -274.3260 
  38   2.0000     -10.081166      -274.3225 
  39   2.0000     -10.081134      -274.3216 
  40   2.0000     -10.080638      -274.3081 
  41   2.0000     -10.061840      -273.7966 
  42   2.0000     -10.059165      -273.7238 
  43   2.0000     -10.058283      -273.6998 
  44   2.0000     -10.058079      -273.6942 
  45   2.0000     -10.058027      -273.6928 
  46   2.0000     -10.058007      -273.6923 
  47   2.0000     -10.057892      -273.6892 
  48   2.0000     -10.056314      -273.6462 
  49   2.0000     -10.055996      -273.6376 
  50   2.0000     -10.055868      -273.6341 
  51   2.0000     -10.055755      -273.6310 
  52   2.0000     -10.055645      -273.6280 
  53   2.0000     -10.055506      -273.6242 
  54   2.0000     -10.055203      -273.6160 
  55   2.0000     -10.054756      -273.6038 
  56   2.0000     -10.054685      -273.6019 
  57   2.0000     -10.054378      -273.5935 
  58   2.0000     -10.054207      -273.5889 
  59   2.0000     -10.050044      -273.4756 
  60   2.0000     -10.047848      -273.4158 
  61   2.0000      -2.102168       -57.2029 
  62   2.0000      -1.024205       -27.8700 
  63   2.0000      -1.023490       -27.8506 
  64   2.0000      -1.022702       -27.8291 
  65   2.0000      -0.893768       -24.3207 
  66   2.0000      -0.891825       -24.2678 
  67   2.0000      -0.891301       -24.2535 
  68   2.0000      -0.890087       -24.2205 
  69   2.0000      -0.887640       -24.1539 
  70   2.0000      -0.887421       -24.1479 
  71   2.0000      -0.886572       -24.1249 
  72   2.0000      -0.886210       -24.1150 
  73   2.0000      -0.886150       -24.1134 
  74   2.0000      -0.885564       -24.0974 
  75   2.0000      -0.885511       -24.0960 
  76   2.0000      -0.885302       -24.0903 
  77   2.0000      -0.885154       -24.0863 
  78   2.0000      -0.885087       -24.0844 
  79   2.0000      -0.884572       -24.0704 
  80   2.0000      -0.884392       -24.0655 
  81   2.0000      -0.884180       -24.0598 
  82   2.0000      -0.884120       -24.0581 
  83   2.0000      -0.883900       -24.0521 
  84   2.0000      -0.883647       -24.0453 
  85   2.0000      -0.738029       -20.0828 
  86   2.0000      -0.737706       -20.0740 
  87   2.0000      -0.737067       -20.0566 
  88   2.0000      -0.736949       -20.0534 
  89   2.0000      -0.736457       -20.0400 
  90   2.0000      -0.736018       -20.0281 
  91   2.0000      -0.735967       -20.0267 
  92   2.0000      -0.735626       -20.0174 
  93   2.0000      -0.735487       -20.0136 
  94   2.0000      -0.735063       -20.0021 
  95   2.0000      -0.734662       -19.9912 
  96   2.0000      -0.734107       -19.9761 
  97   2.0000      -0.733831       -19.9686 
  98   2.0000      -0.733367       -19.9559 
  99   2.0000      -0.733153       -19.9501 
 100   2.0000      -0.733086       -19.9483 
 101   2.0000      -0.732955       -19.9447 
 102   2.0000      -0.731983       -19.9183 
 103   2.0000      -0.731376       -19.9018 
 104   2.0000      -0.730667       -19.8825 
 105   2.0000      -0.478543       -13.0218 
 106   2.0000      -0.477147       -12.9838 
 107   2.0000      -0.476467       -12.9653 
 108   2.0000      -0.476058       -12.9542 
 109   2.0000      -0.475244       -12.9321 
 110   2.0000      -0.474679       -12.9167 
 111   2.0000      -0.474415       -12.9095 
 112   2.0000      -0.473837       -12.8937 
 113   2.0000      -0.473695       -12.8899 
 114   2.0000      -0.473351       -12.8805 
 115   2.0000      -0.472755       -12.8643 
 116   2.0000      -0.472212       -12.8496 
 117   2.0000      -0.471810       -12.8386 
 118   2.0000      -0.471160       -12.8209 
 119   2.0000      -0.470377       -12.7996 
 120   2.0000      -0.469618       -12.7790 
 121   2.0000      -0.469270       -12.7695 
 122   2.0000      -0.468276       -12.7424 
 123   2.0000      -0.467361       -12.7175 
 124   2.0000      -0.466893       -12.7048 
 125   2.0000      -0.433762       -11.8033 
 126   2.0000      -0.433221       -11.7886 
 127   2.0000      -0.431385       -11.7386 
 128   2.0000      -0.431294       -11.7361 
 129   2.0000      -0.429767       -11.6946 
 130   2.0000      -0.428438       -11.6584 
 131   2.0000      -0.427935       -11.6447 
 132   2.0000      -0.427521       -11.6334 
 133   2.0000      -0.425864       -11.5883 
 134   2.0000      -0.425381       -11.5752 
 135   2.0000      -0.424600       -11.5540 
 136   2.0000      -0.423814       -11.5326 
 137   2.0000      -0.423251       -11.5172 
 138   2.0000      -0.422973       -11.5097 
 139   2.0000      -0.422569       -11.4987 
 140   2.0000      -0.421193       -11.4612 
 141   2.0000      -0.420533       -11.4433 
 142   2.0000      -0.420392       -11.4395 
 143   2.0000      -0.420169       -11.4334 
 144   2.0000      -0.419932       -11.4269 
 145   2.0000      -0.419690       -11.4203 
 146   2.0000      -0.419439       -11.4135 
 147   2.0000      -0.418990       -11.4013 
 148   2.0000      -0.418873       -11.3981 
 149   2.0000      -0.418731       -11.3942 
 150   2.0000      -0.418170       -11.3790 
 151   2.0000      -0.417809       -11.3692 
 152   2.0000      -0.417311       -11.3556 
 153   2.0000      -0.416977       -11.3465 
 154   2.0000      -0.416717       -11.3394 
 155   2.0000      -0.415984       -11.3195 
 156   2.0000      -0.415450       -11.3050 
 157   2.0000      -0.414982       -11.2922 
 158   2.0000      -0.414303       -11.2738 
 159   2.0000      -0.413995       -11.2654 
 160   2.0000      -0.413027       -11.2390 
 161   2.0000      -0.412427       -11.2227 
 162   2.0000      -0.411568       -11.1993 
 163   2.0000      -0.408366       -11.1122 
 164   2.0000      -0.408169       -11.1068 
 165   2.0000      -0.374701       -10.1961 
 166   2.0000      -0.361943        -9.8490 
 167   2.0000      -0.358216        -9.7476 
 168   2.0000      -0.354827        -9.6553 
 169   2.0000      -0.350595        -9.5402 
 170   2.0000      -0.350223        -9.5301 
 171   2.0000      -0.349159        -9.5011 
 172   2.0000      -0.348795        -9.4912 
 173   2.0000      -0.348262        -9.4767 
 174   2.0000      -0.347116        -9.4455 
 175   2.0000      -0.346572        -9.4307 
 176   2.0000      -0.346238        -9.4216 
 177   2.0000      -0.345183        -9.3929 
 178   2.0000      -0.344837        -9.3835 
 179   2.0000      -0.344479        -9.3737 
 180   2.0000      -0.344123        -9.3641 
 181   2.0000      -0.343822        -9.3559 
 182   2.0000      -0.343256        -9.3405 
 183   2.0000      -0.342383        -9.3167 
 184   2.0000      -0.342077        -9.3084 
 185   2.0000      -0.322561        -8.7773 
 186   2.0000      -0.321220        -8.7408 
 187   2.0000      -0.318910        -8.6780 
 188   2.0000      -0.318694        -8.6721 
 189   2.0000      -0.317881        -8.6500 
 190   2.0000      -0.317365        -8.6359 
 191   2.0000      -0.316934        -8.6242 
 192   2.0000      -0.315342        -8.5809 
 193   2.0000      -0.315076        -8.5736 
 194   2.0000      -0.314775        -8.5655 
 195   2.0000      -0.313778        -8.5383 
 196   2.0000      -0.313299        -8.5253 
 197   2.0000      -0.312574        -8.5056 
 198   2.0000      -0.311851        -8.4859 
 199   2.0000      -0.311638        -8.4801 
 200   2.0000      -0.311558        -8.4779 
 201   2.0000      -0.311148        -8.4668 
 202   2.0000      -0.311122        -8.4661 
 203   2.0000      -0.310807        -8.4575 
 204   2.0000      -0.310301        -8.4437 
 205   2.0000      -0.310186        -8.4406 
 206   2.0000      -0.309756        -8.4289 
 207   2.0000      -0.308873        -8.4049 
 208   2.0000      -0.308382        -8.3915 
 209   2.0000      -0.307512        -8.3678 
 210   2.0000      -0.307285        -8.3616 
 211   2.0000      -0.306948        -8.3525 
 212   2.0000      -0.306303        -8.3349 
 213   2.0000      -0.305490        -8.3128 
 214   2.0000      -0.304657        -8.2901 
 215   2.0000      -0.304003        -8.2723 
 216   2.0000      -0.303432        -8.2568 
 217   2.0000      -0.303069        -8.2469 
 218   2.0000      -0.301980        -8.2173 
 219   2.0000      -0.300470        -8.1762 
 220   2.0000      -0.300013        -8.1638 
 221   2.0000      -0.299753        -8.1567 
 222   2.0000      -0.299266        -8.1434 
 223   2.0000      -0.297811        -8.1038 
 224   2.0000      -0.297442        -8.0938 
 225   0.0000      -0.014570        -0.3965 
[...]
      dxz     :     0.019917
      dyz     :     0.043379
      dx2y2   :     0.046308
      dxy     :     0.070378
106 H s       :     0.735680  s :     0.735680
      pz      :     0.022562  p :     0.050350
      px      :     0.020722
      py      :     0.007065
107 H s       :     0.735604  s :     0.735604
      pz      :     0.008676  p :     0.050346
      px      :     0.017683
      py      :     0.023987
108 H s       :     0.753897  s :     0.753897
      pz      :     0.024654  p :     0.045036
      px      :     0.012926
      py      :     0.007456
109 C s       :     2.946605  s :     2.946605
      pz      :     1.160794  p :     3.347127
      px      :     1.094329
      py      :     1.092004
      dz2     :     0.008920  d :     0.062482
      dxz     :     0.011591
      dyz     :     0.013128
      dx2y2   :     0.007322
      dxy     :     0.021521
110 C s       :     2.876058  s :     2.876058
      pz      :     0.848974  p :     2.855452
      px      :     1.000541
      py      :     1.005937
      dz2     :     0.010783  d :     0.107162
      dxz     :     0.017680
      dyz     :     0.018390
      dx2y2   :     0.032862
      dxy     :     0.027448
111 N s       :     3.413046  s :     3.413046
      pz      :     1.169623  p :     3.812134
      px      :     1.317656
      py      :     1.324854
      dz2     :     0.027738  d :     0.191283
      dxz     :     0.024135
      dyz     :     0.024623
      dx2y2   :     0.041833
      dxy     :     0.072953
112 H s       :     0.735962  s :     0.735962
      pz      :     0.028045  p :     0.049866
      px      :     0.010166
      py      :     0.011655
113 H s       :     0.753461  s :     0.753461
      pz      :     0.015166  p :     0.044966
      px      :     0.010762
      py      :     0.019038
114 H s       :     0.753514  s :     0.753514
      pz      :     0.013399  p :     0.044940
      px      :     0.020697
      py      :     0.010844
115 C s       :     2.947130  s :     2.947130
      pz      :     1.161264  p :     3.349626
      px      :     1.116689
      py      :     1.071673
      dz2     :     0.012540  d :     0.062313
      dxz     :     0.004663
      dyz     :     0.015197
      dx2y2   :     0.011040
      dxy     :     0.018874
116 C s       :     2.877018  s :     2.877018
      pz      :     0.837389  p :     2.857831
      px      :     0.965574
      py      :     1.054869
      dz2     :     0.009445  d :     0.107044
      dxz     :     0.012313
      dyz     :     0.022290
      dx2y2   :     0.034674
      dxy     :     0.028322
117 N s       :     3.413851  s :     3.413851
      pz      :     1.154224  p :     3.812120
      px      :     1.284979
      py      :     1.372916
      dz2     :     0.024808  d :     0.186376
      dxz     :     0.017196
      dyz     :     0.027251
      dx2y2   :     0.045612
      dxy     :     0.071509
118 H s       :     0.732890  s :     0.732890
      pz      :     0.008741  p :     0.051093
      px      :     0.033129
      py      :     0.009223
119 H s       :     0.753638  s :     0.753638
      pz      :     0.024608  p :     0.044933
      px      :     0.007732
      py      :     0.012593
120 H s       :     0.754365  s :     0.754365
      pz      :     0.020067  p :     0.044982
      px      :     0.009685
      py      :     0.015231


                      *****************************
                      * MAYER POPULATION ANALYSIS *
                      *****************************

  NA   - Mulliken gross atomic population
  ZA   - Total nuclear charge
  QA   - Mulliken gross atomic charge
  VA   - Mayer's total valence
  BVA  - Mayer's bonded valence
  FA   - Mayer's free valence

  ATOM       NA         ZA         QA         VA         BVA        FA
  0 H      0.7720     1.0000     0.2280     0.9343     0.9343    -0.0000
  1 H      0.7869     1.0000     0.2131     0.9412     0.9412    -0.0000
  2 C      6.6931     6.0000    -0.6931     3.6866     3.6866     0.0000
  3 H      0.7851     1.0000     0.2149     0.9427     0.9427     0.0000
  4 H      0.7824     1.0000     0.2176     0.9357     0.9357    -0.0000
  5 H      0.7734     1.0000     0.2266     0.9415     0.9415    -0.0000
  6 N      7.4376     7.0000    -0.4376     2.6978     2.6978    -0.0000
  7 H      0.7698     1.0000     0.2302     0.9365     0.9365     0.0000
  8 H      0.7683     1.0000     0.2317     0.9357     0.9357     0.0000
  9 H      0.7758     1.0000     0.2242     0.9403     0.9403     0.0000
 10 N      7.4225     7.0000    -0.4225     2.6511     2.6511     0.0000
 11 C      5.5683     6.0000     0.4317     3.4107     3.4107    -0.0000
 12 C      5.5332     6.0000     0.4668     3.4057     3.4057     0.0000
 13 C      6.6540     6.0000    -0.6540     3.7358     3.7358     0.0000
 14 Na    10.2322    11.0000     0.7678     0.4610     0.4610    -0.0000
 15 N      7.4218     7.0000    -0.4218     2.7129     2.7129    -0.0000
 16 C      5.5523     6.0000     0.4477     3.4767     3.4767     0.0000
 17 C      6.6462     6.0000    -0.6462     3.7590     3.7590    -0.0000
 18 H      0.7888     1.0000     0.2112     0.9417     0.9417     0.0000
 19 H      0.7599     1.0000     0.2401     0.9330     0.9330     0.0000
 20 H      0.7823     1.0000     0.2177     0.9397     0.9397     0.0000
 21 N      7.4753     7.0000    -0.4753     2.8048     2.8048    -0.0000
 22 C      5.4934     6.0000     0.5066     3.5341     3.5341     0.0000
 23 C      6.6852     6.0000    -0.6852     3.7344     3.7344     0.0000
 24 H      0.7791     1.0000     0.2209     0.9376     0.9376     0.0000
 25 H      0.7707     1.0000     0.2293     0.9347     0.9347     0.0000
 26 H      0.7668     1.0000     0.2332     0.9340     0.9340     0.0000
 27 H      0.7821     1.0000     0.2179     0.9401     0.9401    -0.0000
 28 H      0.7751     1.0000     0.2249     0.9373     0.9373    -0.0000
 29 H      0.7812     1.0000     0.2188     0.9387     0.9387    -0.0000
 30 N      7.4023     7.0000    -0.4023     2.8306     2.8306    -0.0000
 31 C      5.6118     6.0000     0.3882     3.5729     3.5729    -0.0000
 32 C      6.6069     6.0000    -0.6069     3.7957     3.7957    -0.0000
 33 C      5.5954     6.0000     0.4046     3.5120     3.5120    -0.0000
 34 C      6.6857     6.0000    -0.6857     3.7420     3.7420    -0.0000
 35 H      0.7568     1.0000     0.2432     0.9318     0.9318    -0.0000
 36 N      7.4036     7.0000    -0.4036     2.7172     2.7172     0.0000
 37 C      6.6073     6.0000    -0.6073     3.7904     3.7904    -0.0000
 38 C      5.6588     6.0000     0.3412     3.6849     3.6849     0.0000
 39 N      7.3898     7.0000    -0.3898     2.8876     2.8876    -0.0000
 40 H      0.7825     1.0000     0.2175     0.9406     0.9406    -0.0000
 41 H      0.7758     1.0000     0.2242     0.9420     0.9420    -0.0000
 42 H      0.7878     1.0000     0.2122     0.9400     0.9400    -0.0000
 43 C      6.5906     6.0000    -0.5906     3.7862     3.7862     0.0000
 44 C      5.6620     6.0000     0.3380     3.6737     3.6737    -0.0000
 45 N      7.3911     7.0000    -0.3911     2.8699     2.8699     0.0000
 46 H      0.7843     1.0000     0.2157     0.9392     0.9392     0.0000
 47 H      0.7746     1.0000     0.2254     0.9386     0.9386     0.0000
 48 H      0.7842     1.0000     0.2158     0.9396     0.9396    -0.0000
 49 C      6.6031     6.0000    -0.6031     3.7848     3.7848    -0.0000
 50 C      5.6479     6.0000     0.3521     3.6485     3.6485    -0.0000
 51 N      7.4001     7.0000    -0.4001     2.8289     2.8289     0.0000
 52 H      0.7890     1.0000     0.2110     0.9413     0.9413    -0.0000
 53 H      0.7887     1.0000     0.2113     0.9413     0.9413    -0.0000
 54 H      0.7642     1.0000     0.2358     0.9329     0.9329    -0.0000
 55 C      6.5897     6.0000    -0.5897     3.7802     3.7802    -0.0000
 56 C      5.6822     6.0000     0.3178     3.7096     3.7096    -0.0000
 57 N      7.3777     7.0000    -0.3777     2.8893     2.8893    -0.0000
 58 H      0.7894     1.0000     0.2106     0.9416     0.9416    -0.0000
 59 H      0.7890     1.0000     0.2110     0.9414     0.9414    -0.0000
 60 H      0.7702     1.0000     0.2298     0.9373     0.9373    -0.0000
 61 C      6.5683     6.0000    -0.5683     3.7882     3.7882    -0.0000
 62 C      5.6919     6.0000     0.3081     3.7282     3.7282     0.0000
 63 N      7.3647     7.0000    -0.3647     2.8947     2.8947    -0.0000
 64 H      0.7879     1.0000     0.2121     0.9408     0.9408    -0.0000
 65 H      0.7879     1.0000     0.2121     0.9408     0.9408    -0.0000
 66 H      0.7876     1.0000     0.2124     0.9407     0.9407    -0.0000
 67 C      6.6400     6.0000    -0.6400     3.7470     3.7470    -0.0000
 68 C      5.6179     6.0000     0.3821     3.6313     3.6313    -0.0000
 69 N      7.4076     7.0000    -0.4076     2.8484     2.8484     0.0000
 70 H      0.7883     1.0000     0.2117     0.9411     0.9411    -0.0000
 71 H      0.7763     1.0000     0.2237     0.9383     0.9383    -0.0000
 72 H      0.7657     1.0000     0.2343     0.9364     0.9364     0.0000
 73 C      6.6427     6.0000    -0.6427     3.7920     3.7920    -0.0000
 74 C      5.6605     6.0000     0.3395     3.6857     3.6857    -0.0000
 75 N      7.3879     7.0000    -0.3879     2.9319     2.9319    -0.0000
 76 H      0.7865     1.0000     0.2135     0.9376     0.9376    -0.0000
 77 H      0.7611     1.0000     0.2389     0.9321     0.9321    -0.0000
 78 H      0.7727     1.0000     0.2273     0.9324     0.9324    -0.0000
 79 C      6.6464     6.0000    -0.6464     3.7465     3.7465     0.0000
 80 C      5.6068     6.0000     0.3932     3.5892     3.5892     0.0000
 81 N      7.4039     7.0000    -0.4039     2.8302     2.8302    -0.0000
 82 H      0.7890     1.0000     0.2110     0.9412     0.9412    -0.0000
 83 H      0.7679     1.0000     0.2321     0.9341     0.9341    -0.0000
 84 H      0.7716     1.0000     0.2284     0.9361     0.9361    -0.0000
 85 C      6.6022     6.0000    -0.6022     3.7792     3.7792     0.0000
 86 C      5.6747     6.0000     0.3253     3.6700     3.6700     0.0000
 87 N      7.3798     7.0000    -0.3798     2.8826     2.8826     0.0000
 88 H      0.7703     1.0000     0.2297     0.9388     0.9388     0.0000
 89 H      0.7807     1.0000     0.2193     0.9387     0.9387     0.0000
 90 H      0.7880     1.0000     0.2120     0.9411     0.9411     0.0000
 91 C      6.5992     6.0000    -0.5992     3.7787     3.7787    -0.0000
 92 C      5.6665     6.0000     0.3335     3.7322     3.7322     0.0000
 93 N      7.3777     7.0000    -0.3777     2.9123     2.9123     0.0000
 94 H      0.7877     1.0000     0.2123     0.9409     0.9409     0.0000
 95 H      0.7730     1.0000     0.2270     0.9379     0.9379    -0.0000
 96 H      0.7881     1.0000     0.2119     0.9409     0.9409     0.0000
 97 C      6.6327     6.0000    -0.6327     3.7815     3.7815    -0.0000
 98 C      5.6177     6.0000     0.3823     3.5896     3.5896     0.0000
 99 N      7.4026     7.0000    -0.4026     2.8263     2.8263    -0.0000
100 H      0.7895     1.0000     0.2105     0.9413     0.9413     0.0000
101 H      0.7822     1.0000     0.2178     0.9390     0.9390    -0.0000
102 H      0.7652     1.0000     0.2348     0.9342     0.9342    -0.0000
103 C      6.6099     6.0000    -0.6099     3.7900     3.7900     0.0000
104 C      5.6631     6.0000     0.3369     3.6531     3.6531     0.0000
105 N      7.3934     7.0000    -0.3934     2.8387     2.8387     0.0000
106 H      0.7733     1.0000     0.2267     0.9376     0.9376     0.0000
107 H      0.7720     1.0000     0.2280     0.9368     0.9368     0.0000
108 H      0.7886     1.0000     0.2114     0.9413     0.9413     0.0000
109 C      6.5940     6.0000    -0.5940     3.7874     3.7874    -0.0000
110 C      5.6615     6.0000     0.3385     3.6888     3.6888     0.0000
111 N      7.3826     7.0000    -0.3826     2.8662     2.8662     0.0000
112 H      0.7771     1.0000     0.2229     0.9417     0.9417    -0.0000
113 H      0.7873     1.0000     0.2127     0.9406     0.9406    -0.0000
114 H      0.7873     1.0000     0.2127     0.9407     0.9407    -0.0000
115 C      6.5799     6.0000    -0.5799     3.7856     3.7856    -0.0000
116 C      5.6828     6.0000     0.3172     3.7059     3.7059    -0.0000
117 N      7.3797     7.0000    -0.3797     2.8792     2.8792    -0.0000
118 H      0.7759     1.0000     0.2241     0.9408     0.9408    -0.0000
119 H      0.7867     1.0000     0.2133     0.9416     0.9416     0.0000
120 H      0.7885     1.0000     0.2115     0.9411     0.9411     0.0000

  Mayer bond orders larger than 0.100000
B(  0-H , 34-C ) :   0.9386 B(  1-H , 32-C ) :   0.9393 B(  2-C ,  7-H ) :   0.9267 
B(  2-C ,  8-H ) :   0.9242 B(  2-C ,  9-H ) :   0.9297 B(  2-C , 12-C ) :   0.9027 
B(  3-H , 32-C ) :   0.9358 B(  4-H , 34-C ) :   0.9393 B(  5-H , 32-C ) :   0.9319 
B(  6-N , 12-C ) :   2.5595 B( 10-N , 11-C ) :   2.5335 B( 11-C , 13-C ) :   0.9338 
B( 13-C , 18-H ) :   0.9420 B( 13-C , 19-H ) :   0.9180 B( 13-C , 20-H ) :   0.9410 
B( 15-N , 16-C ) :   2.5821 B( 16-C , 17-C ) :   0.9427 B( 17-C , 27-H ) :   0.9324 
B( 17-C , 28-H ) :   0.9278 B( 17-C , 29-H ) :   0.9467 B( 21-N , 22-C ) :   2.6723 
B( 22-C , 23-C ) :   0.9034 B( 23-C , 24-H ) :   0.9429 B( 23-C , 25-H ) :   0.9375 
B( 23-C , 26-H ) :   0.9157 B( 30-N , 31-C ) :   2.6690 B( 31-C , 32-C ) :   0.9452 
B( 33-C , 34-C ) :   0.9343 B( 33-C , 36-N ) :   2.6157 B( 34-C , 35-H ) :   0.9071 
B( 37-C , 38-C ) :   0.9397 B( 37-C , 40-H ) :   0.9326 B( 37-C , 41-H ) :   0.9336 
B( 37-C , 42-H ) :   0.9422 B( 38-C , 39-N ) :   2.7800 B( 43-C , 44-C ) :   0.9524 
B( 43-C , 46-H ) :   0.9391 B( 43-C , 47-H ) :   0.9252 B( 43-C , 48-H ) :   0.9446 
B( 44-C , 45-N ) :   2.7583 B( 49-C , 50-C ) :   0.9743 B( 49-C , 52-H ) :   0.9424 
B( 49-C , 53-H ) :   0.9429 B( 49-C , 54-H ) :   0.9184 B( 50-C , 51-N ) :   2.7090 
B( 55-C , 56-C ) :   0.9648 B( 55-C , 58-H ) :   0.9422 B( 55-C , 59-H ) :   0.9431 
B( 55-C , 60-H ) :   0.9196 B( 56-C , 57-N ) :   2.7905 B( 61-C , 62-C ) :   0.9685 
B( 61-C , 64-H ) :   0.9400 B( 61-C , 65-H ) :   0.9403 B( 61-C , 66-H ) :   0.9402 
B( 62-C , 63-N ) :   2.8064 B( 67-C , 68-C ) :   0.9352 B( 67-C , 70-H ) :   0.9443 
B( 67-C , 71-H ) :   0.9357 B( 67-C , 72-H ) :   0.9178 B( 68-C , 69-N ) :   2.7223 
B( 73-C , 74-C ) :   0.9157 B( 73-C , 76-H ) :   0.9196 B( 73-C , 77-H ) :   0.9353 
B( 73-C , 78-H ) :   0.9304 B( 74-C , 75-N ) :   2.8123 B( 79-C , 80-C ) :   0.9096 
B( 79-C , 82-H ) :   0.9454 B( 79-C , 83-H ) :   0.9309 B( 79-C , 84-H ) :   0.9288 
B( 80-C , 81-N ) :   2.7041 B( 85-C , 86-C ) :   0.9434 B( 85-C , 88-H ) :   0.9294 
B( 85-C , 89-H ) :   0.9431 B( 85-C , 90-H ) :   0.9366 B( 86-C , 87-N ) :   2.7680 
B( 91-C , 92-C ) :   0.9594 B( 91-C , 94-H ) :   0.9415 B( 91-C , 95-H ) :   0.9204 
B( 91-C , 96-H ) :   0.9424 B( 92-C , 93-N ) :   2.8096 B( 97-C , 98-C ) :   0.9355 
B( 97-C ,100-H ) :   0.9403 B( 97-C ,101-H ) :   0.9428 B( 97-C ,102-H ) :   0.9269 
B( 98-C , 99-N ) :   2.7043 B(103-C ,104-C ) :   0.9716 B(103-C ,106-H ) :   0.9244 
B(103-C ,107-H ) :   0.9264 B(103-C ,108-H ) :   0.9452 B(104-C ,105-N ) :   2.7206 
B(109-C ,110-C ) :   0.9652 B(109-C ,112-H ) :   0.9215 B(109-C ,113-H ) :   0.9418 
B(109-C ,114-H ) :   0.9407 B(110-C ,111-N ) :   2.7644 B(115-C ,116-C ) :   0.9653 
B(115-C ,118-H ) :   0.9178 B(115-C ,119-H ) :   0.9443 B(115-C ,120-H ) :   0.9422 
B(116-C ,117-N ) :   2.7791 

-------
TIMINGS
-------

Total SCF time: 0 days 0 hours 6 min 9 sec 

Total time                  ....     369.328 sec
Sum of individual times     ....     353.350 sec  ( 95.7%)

Fock matrix formation       ....     313.110 sec  ( 84.8%)
  Split-RI-J                ....      62.784 sec  ( 20.1% of F)
  XC integration            ....     110.927 sec  ( 35.4% of F)
    Basis function eval.    ....      19.433 sec  ( 17.5% of XC)
    Density eval.           ....      37.625 sec  ( 33.9% of XC)
    XC-Functional eval.     ....      10.344 sec  (  9.3% of XC)
    XC-Potential eval.      ....      31.359 sec  ( 28.3% of XC)
Diagonalization             ....       3.648 sec  (  1.0%)
Density matrix formation    ....       0.499 sec  (  0.1%)
Population analysis         ....       0.534 sec  (  0.1%)
Initial guess               ....       4.103 sec  (  1.1%)
Orbital Transformation      ....       0.000 sec  (  0.0%)
Orbital Orthonormalization  ....       0.000 sec  (  0.0%)
DIIS solution               ....       2.183 sec  (  0.6%)
SOSCF solution              ....       3.364 sec  (  0.9%)
Grid generation             ....      25.908 sec  (  7.0%)

Maximum memory used throughout the entire SCF-calculation: 1454.9 MB


-------------------------------------------------------------------------------
                          DFT DISPERSION CORRECTION                            
                                                                               
                                 DFTD4 V2.5                                    
-------------------------------------------------------------------------------
The R2SCAN3C composite method is recognized
Using three-body term ABC
Active option DFTDOPT                   ...         5   

Starting D4
-------------------------   ----------------
Dispersion correction           -0.051303178
-------------------------   ----------------

------------------   -----------------
gCP correction             0.060841450
------------------   -----------------

-------------------------   --------------------
FINAL SINGLE POINT ENERGY     -2816.800253209672
-------------------------   --------------------


                            ***************************************
                            *     ORCA property calculations      *
                            ***************************************

                                    ---------------------
                                    Active property flags
                                    ---------------------
   (+) Dipole Moment


------------------------------------------------------------------------------
                       ORCA ELECTRIC PROPERTIES CALCULATION
------------------------------------------------------------------------------

Dipole Moment Calculation                       ... on
Quadrupole Moment Calculation                   ... off
Polarizability Calculation                      ... off
GBWName                                         ... ORCA.gbw
Electron density                                ... ORCA.scfp
The origin for moment calculation is the CENTER OF MASS  = ( 0.142146,  0.081335 -0.031125)

-------------
DIPOLE MOMENT
-------------
                                X             Y             Z
Electronic contribution:      0.24570       1.34577      -0.60879
Nuclear contribution   :      1.72492      -3.12342      -0.06505
                        -----------------------------------------
Total Dipole Moment    :      1.97063      -1.77765      -0.67385
                        -----------------------------------------
Magnitude (a.u.)       :      2.73815
Magnitude (Debye)      :      6.95982



--------------------
Rotational spectrum 
--------------------
 
Rotational constants in cm-1:     0.001306     0.000749     0.000651 
Rotational constants in MHz :    39.145637    22.450212    19.506332 

 Dipole components along the rotational axes: 
x,y,z [a.u.] :     1.973596    -1.803073    -0.592711 
x,y,z [Debye]:     5.016483    -4.583047    -1.506551 

 

Timings for individual modules:

Sum of individual times         ...      373.437 sec (=   6.224 min)
GTO integral calculation        ...        3.213 sec (=   0.054 min)   0.9 %
SCF iterations                  ...      370.225 sec (=   6.170 min)  99.1 %
                             ****ORCA TERMINATED NORMALLY****
TOTAL RUN TIME: 0 days 0 hours 6 minutes 15 seconds 660 msec
