60
 energy: -87.040114366949 gnorm: 0.000179787292 xtb: 6.6.0 (83090be673e2468c27fcd74d519548d8d51bd8df)
C            2.04937717210328        3.43179969602826        1.61885505315271
C            2.18212404474570        3.78763004586981        0.24464261707326
N            2.28330062346197        4.07300844917208       -0.86106105373914
H            1.82351989840872        4.31832213025109        2.20893020509132
H            2.98282159817160        2.98781728137802        1.96819454591417
H            1.24570317889048        2.70196394409710        1.72393369543359
C           -0.39825852544073       -1.16893374358037       -4.15214499214345
C            0.39533627470491       -1.68339738925208       -3.08444463422873
N            1.03430689368302       -2.09277088573160       -2.22534313396247
H           -0.32438160233489       -1.82728660332593       -5.01615508892841
H           -0.03796583457682       -0.17341366104868       -4.41709645225319
H           -1.43658259831812       -1.10145043331640       -3.82801939075080
C            0.78134694654245       -1.31234022820058        1.00117612118364
C            0.14573956563960       -0.08631646457227        1.34564118894664
N           -0.34990603359037        0.90922972247781        1.62584177610319
H            0.79244310527963       -1.42927748130161       -0.08340450036892
H            0.24357914312298       -2.15103215285366        1.44404007819395
H            1.80532226927201       -1.30616465885351        1.37243595188959
C           -2.73689970912243        2.82047340871804        2.79234836850202
C           -3.96423996067492        2.31950781349341        2.25994367226440
N           -4.94818034262005        1.91989446584181        1.82931810454367
H           -2.59727562646542        3.85344467171870        2.47689524405979
H           -1.91337438078502        2.20834492746646        2.42038553496610
H           -2.76397388775181        2.76949808392604        3.87980312530077
C            2.61739120217319        3.47988168900000       -4.01580685340314
C            1.52535638728006        2.61955831285200       -4.32694225458825
N            0.64116557735513        1.93156543483287       -4.57243509490032
H            2.55082376908450        4.38755295025437       -4.61377578839969
H            3.55670503816303        2.96992486976758       -4.22452051200440
H            2.57189170237690        3.73683890464574       -2.95500188598091
C           -5.36315461599339       -0.83612507197365        0.00088801168944
C           -4.81165226404311       -1.95334970358210        0.69320870470601
N           -4.37355801709456       -2.85486088795453        1.24969384627331
H           -6.38871051913455       -1.05585182748295       -0.29116738429159
H           -4.76548973717051       -0.62828242961845       -0.88769705711005
H           -5.34743505327756        0.03947943132834        0.65198934629326
C           -2.50209400490971       -5.20589012310918        2.45266272183590
C           -1.17555041129272       -4.77388363648109        2.15763834279076
N           -0.11072948906054       -4.42121228693020        1.92060989915044
H           -2.69278557655007       -6.15975464304682        1.96312263463375
H           -3.20665612423940       -4.45892106014260        2.08145594768238
H           -2.62128150516493       -5.31481841073834        3.52960197919089
C            2.68169975077318       -4.05874175412649        0.05464964156472
C            3.69203831332396       -3.31211832841643        0.72836502777879
N            4.50253231393152       -2.70767612851372        1.26949429920568
H            2.30193920053462       -3.47865520239751       -0.78649342158975
H            1.86124543710108       -4.26557702572183        0.74249361666344
H            3.10064523200063       -4.99637180921015       -0.30697864586522
C           -2.29888495197319        2.42722607002897       -3.03720910965360
C           -2.95127547269632        1.18415098757743       -2.77568249409032
N           -3.46936823463218        0.18127657076251       -2.57832372539301
H           -2.06542169020112        2.92078183108892       -2.09499088278129
H           -2.95247538093476        3.06321275283141       -3.63244979571170
H           -1.37312475165183        2.24200725258361       -3.58523839642255
C            6.23157935470203       -0.29589463181715        2.65874895550291
C            5.42263893679009        0.87931552996497        2.61133294687870
N            4.77017959010058        1.82083399747755        2.57374695975090
H            5.69381933550931       -1.12080381700401        2.18752284897213
H            6.44511553397309       -0.54937736437307        3.69615611021619
H            7.16424826213348       -0.11928781566314        2.12516309825764
