1
Input for step 1
K          0.90266        0.02151        0.00786
