264
 energy: -394.855494938989 gnorm: 0.000116215693 xtb: 6.6.0 (83090be673e2468c27fcd74d519548d8d51bd8df)
Li          -0.00268837758852       11.51810246835534      122.36379500940401
Li          -2.95984787329043        5.67088423700065      113.07903971453705
N           -0.00496902886730       11.52233997246795      125.63855605626127
H           -0.00281162507439       11.52126949578873      124.59189574287586
C           -0.64168103310125       10.24234504387932      126.04743372823562
H           -1.10272274230547       10.35427764264363      127.03024333571467
H            0.12846089746038        9.47196786172518      126.11512052033640
C           -1.67157710958474        9.81679241985707      124.99706875046797
H           -2.12288325540291        8.86347245281375      125.30527567039968
H           -2.46607240959548       10.56410151934765      124.91489045643439
N           -1.01308261456665        9.74052782577453      123.72282182048795
C           -1.07555773133318        8.67367822553182      123.05062906152942
H           -1.62697085782044        7.79531924623016      123.40304555730489
C           -0.40539268152541        8.52991633058551      121.76903853278215
N            0.16158190389647        9.60822278265011      121.22563649127753
C            0.77063012663461        9.48541478570557      120.06486971220612
H            1.18997856732239       10.39499866220331      119.66102427822166
C            0.86755934589422        8.28053376753201      119.35668490631872
C            0.27745209093625        7.15360145324870      119.92894235376365
H            0.34012939034108        6.19105305484571      119.44467095224900
C           -0.36827147752443        7.28012290595780      121.14453852420617
H           -0.82806294223365        6.42301530486060      121.61174810690088
C            1.55930267591500        8.21035205950050      118.06141711790976
C            2.74512654524712        8.91141716254335      117.86063585821319
H            3.15750977641891        9.50224324927225      118.66269651940415
C            3.41363821873414        8.83888789633708      116.64170929200137
C            2.88210707073276        8.06144430289720      115.61634994395088
H            3.40241763949354        7.99277861979944      114.67453060345383
C            1.69669050493210        7.35588752585160      115.80328183685117
C            1.03987445030376        7.43514242330287      117.02832497413169
H            0.12898581258633        6.87918031003021      117.18232310796311
C            4.67495616402324        9.56692489257188      116.44254115022170
C            5.63123777189048        9.65788236570352      117.45412053059630
H            5.47905730895425        9.16939705521264      118.40449353684917
C            6.79654415611183       10.36114849115002      117.21315256845975
H            7.55478686793938       10.44178417873156      117.97660630205156
C            6.98768828308077       10.95413493982580      115.96210151709661
N            6.07582188402795       10.86654978588294      114.99247009173025
C            4.96425996198393       10.20153239401811      115.22754108046190
H            4.25213617868869       10.18406452071455      114.41591665770235
C            1.14917954590341        6.52701728557053      114.71948694979829
C           -0.22779274322290        6.47755202896431      114.46607003693511
H           -0.91584606406440        7.06550573376821      115.05514630041993
N           -0.77343051853400        5.75578384966367      113.50965037738980
C            0.02120647902659        5.02707545985172      112.72416916901766
C            1.40894618944749        5.00837025658833      112.88883287917629
H            2.02658264067672        4.40307733141563      112.24351976049910
C            1.97764900297647        5.76176615390872      113.89853873149914
H            3.04478431401052        5.73724344260822      114.05876794450899
C            8.21336921740802       11.68691576620626      115.69253938776620
H            8.88382495610371       11.82933812793069      116.54686617034051
N            8.49443406752180       12.11946412237341      114.54023075431736
C            9.73382904763812       12.81256483733807      114.32434319782627
H           10.37614472360520       12.83211589464142      115.21563946454167
H            9.49320635105713       13.84366891530876      114.04982226414309
C           -0.58854887770387        4.23076325665014      111.67247990551782
H            0.10514501510917        3.74231100978512      110.97972302701363
N           -1.84004436892563        4.09698980221664      111.57366184950108
C           -2.38569037694024        3.27213002729955      110.53201479151653
H           -1.61413572022021        2.75168795050582      109.94773650316714
H           -2.95021354211354        3.92160649403565      109.85676181816743
C           -3.30989791079188        2.23290499422240      111.17305743691502
H           -3.78284361219731        1.60460795971947      110.41628481173650
H           -2.71644353911307        1.59339820362949      111.82892670674143
N           -4.35056312213923        2.91750341440483      111.98491459364189
H           -3.90479661443634        3.79440174308357      112.34249450104086
C           -4.74399946147801        2.13964824909406      113.18965662284252
H           -4.76705631598627        1.07437496273229      112.95354365392663
H           -5.74631387737311        2.44560345478436      113.49450981730627
C           -5.51869818752305        3.35369006773626      111.17471189477391
H           -6.27839170408895        2.57007246480374      111.16563242152155
H           -5.19082870492123        3.52569849525862      110.14798915482353
C           -6.07939384861371        4.66277940254674      111.73769142240035
H           -6.42159637756626        4.52079252535790      112.76681423576748
H           -6.93741173117891        4.97582254675936      111.12677595885715
N           -5.02183936454217        5.63440395636034      111.76065296119785
C           -5.18334485083066        6.74718396223785      111.18662903472021
H           -6.11559689067018        7.00775794584937      110.67398024226975
C           -4.13426447933443        7.75223430950216      111.14615773334955
C           -4.29508972795082        8.88839555260059      110.34821589270612
H           -5.19095213765095        9.01992550324384      109.76132603685200
C           -3.28509657605795        9.83126070929699      110.30746109655519
H           -3.37812886666896       10.70002292645041      109.67369723426786
C           -2.13825009575669        9.62617500077092      111.07450530472768
C           -2.07995939500539        8.45580042332151      111.84205866758441
H           -1.22612982903869        8.25459824520158      112.47189339733806
N           -3.03582506843932        7.55110612163128      111.87579181804176
C           -1.03669910418794       10.59929111630133      111.08543500900652
C           -1.30608297293217       11.96491159013686      111.08720337457326
H           -2.32773800839095       12.30912035033831      111.07206202423244
C            1.42115021805888       11.61188709787498      126.04968168513717
H            1.55253627237334       11.16219227339989      127.03533406249070
H            1.70443930670536       12.66408611393528      126.11153411580808
C            2.30518478522682       10.92557079269325      125.00453287506708
H            3.35612542217524       11.01043508364441      125.31400596801230
H            2.05301471292028        9.86399239850677      124.92752740206959
N            2.04495756415207       11.52903863810771      123.72737313700181
C            3.00249784065449       11.99941578282514      123.05231541608065
H            4.03900255903019       11.95534043049530      123.40371221136961
C            2.79399428088464       12.65156856986510      121.77039313605009
N            1.57469521293529       12.61425410730427      121.23057774662853
C            1.37804645537522       13.20682208116118      120.07147964955733
H            0.37897759760049       13.12354681843001      119.67020138515439
C            2.37598986418398       13.88746484726273      119.36186193419691
C            3.64952325378138       13.92709232942562      119.92973136212886
H            4.45488392711599       14.45720367838187      119.44457523647107
C            3.86166964346979       13.29930247081287      121.14274326725224
H            4.83573368606230       13.31935520693420      121.60652404690825
C            2.09144429571921       14.52683995336882      118.06913786635754
C            0.89221695745489       15.20540616447568      117.86986291563829
H            0.17414425728292       15.26603803468891      118.67183885950487
C            0.62174526855884       15.82365206232804      116.65221756109608
C            1.56133705899064       15.75463464296335      115.62721734426076
H            1.36151352644369       16.24241171102740      114.68667368930456
C            2.76447357560105       15.07949693638002      115.81296639204683
C            3.02209026465947       14.46562632679801      117.03558259485384
H            3.95774889747107       13.95195259960464      117.18755872989898
C           -0.64036235057710       16.55036352002027      116.45257640071478
C           -1.19855444016475       17.33370554603117      117.46290366635547
H           -0.69899114885003       17.44921108169393      118.41267422000752
C           -2.39271151903324       17.98679792477468      117.22164780010881
H           -2.84342961606176       18.60278756045733      117.98434947666132
C           -3.00218621607538       17.85186231538575      115.97121904902117
N           -2.46827021081180       17.10675337949165      115.00211682713959
C           -1.33470019787561       16.48030071956217      115.23779658106506
H           -0.96225795141568       15.87255339275485      114.42664307497822
C            3.75569764503691       15.02075405786087      114.72896832533594
C            4.48062703684845       13.85043586531003      114.46935289381611
H            4.31225313497523       12.95912745079675      115.05537539155085
N            5.37501200795888       13.73793234292634      113.50981926834746
C            5.61070596566123       14.79165303762683      112.72655236506318
C            4.94030764063128       16.00592966126064      112.89833501530885
H            5.15750642704089       16.84469044891143      112.25522567515186
C            4.00799384044751       16.12298406666551      113.91212686060963
H            3.50103625418577       17.06132957094159      114.07808028110921
C           -4.25392749408163       18.53947578890482      115.70202942608601
H           -4.71554956871087       19.04591445132674      116.55651531622787
N           -4.76899254315373       18.56348577000665      114.54960281784736
C           -5.99284468707330       19.28327615845724      114.33247596274549
H           -6.33593753695557       19.82690811122236      115.22363560857264
H           -6.76063874522596       18.55499642072269      114.05568434318637
C            6.60039182395532       14.65935909741108      111.67045908226461
H            6.67816124591100       15.50556516157299      110.97931478973010
N            7.33773810359861       13.63972827205142      111.56753193951312
C            8.32292404427463       13.57827998544388      110.52399268545227
H            8.38332090232490       14.50422030555393      109.93543850410009
H            8.04482756183942       12.76023093401160      109.85332012669730
C            9.68718804711373       13.30533650672132      111.16391952033595
H           10.46786738514974       13.21473772194937      110.40659579402138
H            9.94034955961689       14.14034605678565      111.81959576016339
N            9.62191092721108       12.06090775133006      111.97528044729766
H            8.63793718330561       11.99831524065932      112.32662713398517
C           10.48393560487360       12.11590614355296      113.18552502158151
H           11.41784787448813       12.63101328164091      112.95400151407976
H           10.72132538584543       11.09648066817244      113.49482693019361
C            9.84437185910312       10.83319595568903      111.16631190123229
H           10.90521218853798       10.57695449768262      111.16279458623561
H            9.53459938748544       11.02813330488098      110.13806848876030
C            8.99784652711140        9.68618901285540      111.72591481376922
H            9.29499148246510        9.45692473587911      112.75340707827242
H            9.15783194599200        8.78989708542735      111.11079724028436
N            7.62645587266288       10.11212363922083      111.75339736675664
C            6.74306045227606        9.41465762827962      111.18167847992650
H            6.98337079866319        8.47771377146954      110.66782036095255
C            5.34769762031864        9.81954343770746      111.14563633490765
C            4.44150501241823        9.10749855033247      110.35494422983334
H            4.77340645158302        8.26211450839726      109.77231507853658
C            3.12001315583709        9.51080624931578      110.31623017305662
H            2.41208888393060        8.99257223588758      109.68745492777117
C            2.72683011485043       10.61115406583456      111.07811629248286
C            3.71361997074476       11.25043617014153      111.83971196270217
H            3.46336304202982       12.09369323212611      112.46619801905192
N            4.97509338655179       10.87504481184327      111.87118980857362
C            1.33354946067858       11.07912318293745      111.08833298225471
C            0.28528479535564       10.16316957583130      111.08835655652234
H            0.49756879259522        9.10617844739402      111.07520656891590
C           -0.79633310057724       12.71405043458405      126.04413613101092
H           -0.47446429777819       13.05615222863296      127.02932028248102
H           -1.84927199927590       12.43326309288746      126.10503467791405
C           -0.64205759760289       13.81920334215913      124.99534173863914
H           -1.24031848059124       14.68864078410753      125.30147263181804
H            0.40376974261578       14.13015382789529      124.91783971547851
N           -1.03406570614333       13.28855375637581      123.71946553662147
C           -1.92033118467807       13.88050760709441      123.04271455877762
H           -2.40100503014044       14.80073174183072      123.39177172686054
C           -2.38076044625239       13.37034432046674      121.76219169960754
N           -1.73484613375622       12.33541219730616      121.22255994710395
C           -2.14817440372344       11.86697935533201      120.06363406157821
H           -1.57346072742194       11.04568411416015      119.66175957362314
C           -3.23883400077332       12.38679742223202      119.35457608189621
C           -3.91534523360771       13.46604781019477      119.92304242845221
H           -4.77952520765847       13.89415783588928      119.43836776397383
C           -3.47929034328326       13.96556082129745      121.13583816065197
H           -3.98780897383145       14.79612918117255      121.60046862967184
C           -3.64701105540860       11.81912802114308      118.06164414910080
C           -3.63385680307845       10.44107269460392      117.86491287036637
H           -3.32932823572262        9.79100954406139      118.66931947580564
C           -4.02845656367770        9.89532712348178      116.64644262036268
C           -4.43398377956399       10.74218169287385      115.61834075474461
H           -4.75203464586920       10.32386353280334      114.67692756102331
C           -4.45276772994119       12.12200126573588      115.80185089303984
C           -4.05697966335335       12.65409070167216      117.02596677584158
H           -4.08213242126664       13.72132155585464      117.17711266892242
C           -4.02890084648866        8.43857613782071      116.45041519752452
C           -4.42240104654963        7.56637439063576      117.46565417231945
H           -4.76387316374540        7.94350033266918      118.41755039034403
C           -4.39850166042744        6.20527812782159      117.22621293765626
H           -4.70401689905519        5.50938025271314      117.99222199375575
C           -3.98917914330098        5.74116132829899      115.97309127939320
N           -3.61369248468976        6.57302737266868      115.00020959786210
C           -3.63179815312078        7.86849660433846      115.23376517893500
H           -3.29533062971728        8.49197300343555      114.41888555241222
C           -4.89604966810560       13.00793567159942      114.71585274919340
C           -4.25317124372985       14.22676993340222      114.46315866767183
H           -3.40382860726675       14.53275209678198      115.05567758212771
N           -4.60351412558500       15.05700254639513      113.50336589647678
C           -5.62668568111043       14.72798606222700      112.71318943852393
C           -6.33426196015053       13.53395818531643      112.87736517950854
H           -7.16344412363265       13.29767014869266      112.22859082575700
C           -5.96856691524382       12.66834550738437      113.89106246580243
H           -6.52178219432679       11.75553569185509      114.05149748248036
C           -3.97187553346659        4.31288663255995      115.70526071596963
H           -4.18299870811779        3.66257487401604      116.56093889290258
N           -3.74389732669682        3.85215007052794      114.55219144805262
C           -3.77056538756416        2.43264077904971      114.33500171741223
H           -4.08300475008852        1.86716852192460      115.22382554692538
H           -2.75765255350707        2.11944238098841      114.06579844011912
C           -6.01060643919798       15.65234710674837      111.65958903225251
H           -6.77946149419542       15.29480200501248      110.96625294537805
N           -5.50335590020308       16.80434333582019      111.56220452898707
C           -5.94713018904791       17.69042238974352      110.52243583254368
H           -6.77891161640880       17.27944786158807      109.93364970880640
H           -5.10140880179168       17.86364766087614      109.85077706989718
C           -6.39548831727912       19.00429978244476      111.16885490241853
H           -6.70799576268934       19.72932150893060      110.41533640508308
H           -7.24521694762697       18.80096446361810      111.82293662481793
N           -5.28651919829561       19.56719603734813      111.98390445843769
H           -4.74158296209702       18.74511189388736      112.33419443725100
C           -5.76809516815134       20.28341662020255      113.19476585191610
H           -6.68328818687137       20.83105404430246      112.96331735763484
H           -5.00711404726139       21.00182701904770      113.50463029627554
C           -4.33285289236466       20.37502712980366      111.17834181217589
H           -4.64164966216979       21.42181494188208      111.17596662195726
H           -4.34491203717487       20.01122245952899      110.14941154890543
C           -2.91689029931781       20.21556960630209      111.73949755760414
H           -2.86893483283374       20.58451074748039      112.76812241849183
H           -2.22138330981770       20.80556666350142      111.12672499390072
N           -2.59618402913023       18.81569020776422      111.76332361924324
C           -1.54816540431193       18.40454715906315      111.19191933092620
H           -0.85865387290538       19.08500000988827      110.68078503772098
C           -1.19525243081173       16.99518286282969      111.15348261845713
C           -0.12474499726447       16.57126397509836      110.36122762666275
H            0.43764829074390       17.28413457667032      109.77827454524743
C            0.19192109757765       15.22633326493107      110.32048102646456
H            0.99532337206083       14.87612708433488      109.69045972269156
C           -0.56046395106392       14.33191300624805      111.08179034932071
C           -1.60847006198685       14.86210868306755      111.84534803538475
H           -2.21024952764776       14.22018204074881      112.47144340592577
N           -1.91883876192100       16.14106462977536      111.87904733559580
C           -0.26725921859701       12.89170236964097      111.08905040941693
C            1.05013352282652       12.44213962296518      111.09079108189931
H            1.85898187465424       13.15497332618120      111.07870693509692
Li           6.54650273450822       11.89001543568050      113.07769428954302
Li          -3.58885585243112       16.99534689848090      113.07897043513061
