262
 energy: -395.288322442175 gnorm: 0.000043622736 xtb: 6.6.0 (83090be673e2468c27fcd74d519548d8d51bd8df)
N           -3.22195465400052        7.56565757026180        1.01763439458757
C           -3.96374881357971        7.70604338044931        2.26794368854042
C           -3.17021807728898        7.05070108924565        3.41491998344879
C           -2.12211566286841        8.52444182254272        0.95480194161293
C           -1.08046745933224        8.04885844622386       -0.07555602117335
C           -4.10794191138287        7.70901391497805       -0.13457936638398
C           -4.92860399590857        6.41770414589297       -0.31441308557151
N           -2.14396252909020        6.23203246100761        2.86058807716722
N           -1.32280630338057        6.67811611361072       -0.38046793538300
N           -4.32299267712622        5.37638636453273        0.44722694486214
Mg          -2.31511076388143        5.44271703724234        0.95226017032320
H           -4.92837111405738        7.21527059720247        2.15550060596842
H           -4.15927817217821        8.76153001434568        2.49771042201199
H           -2.76490787242358        7.80931316500851        4.09787354330946
H           -3.84138603976009        6.40952421504438        3.99518039463945
H           -1.66608040591405        8.59092539914757        1.94060364684265
H           -2.48303032954082        9.52753878524594        0.69241223757249
H           -1.09952277263656        8.67827028183549       -0.97541936845608
H           -0.08023689245529        8.12929342559552        0.36206853725715
H           -3.49897961939606        7.88866827851236       -1.01826957615041
H           -4.77822316232687        8.57053883065859       -0.01754906704502
H           -5.97822302975305        6.57463100067440       -0.03156174018785
H           -4.91108006597921        6.12425150941901       -1.36878043136062
C           -0.95796251164529        6.30888878355281        3.28884360781130
C            7.35646288226167       -2.53307698633130        4.15615559733510
C            3.05001352962323        0.39755461652216       -6.61659311314220
C            4.47707993290893        1.16699678600687        1.01151089855228
C            3.65112887031591        2.12085235140436        1.59998003923750
C            2.80929940068857        2.90526328421282        0.81470069659167
C            2.79125957825339        2.72646197489221       -0.56675278610095
C            3.60870697840415        1.77075138209971       -1.16408326231951
C            4.45704340576462        1.00249054079730       -0.37014289814673
C            5.31747420132832        0.27990329382673        1.83108559648818
C            6.60244177983363       -0.09027104372896        1.43229103971819
C            7.29891124102595       -1.01061998830681        2.19542961816283
C            6.69944252333815       -1.53092173922664        3.34294535706649
N            5.48690987960450       -1.14277905744025        3.75238636632386
C            4.81951976421776       -0.27316543822414        3.01729868967394
C            1.90198894230567        3.87031988375106        1.45551899328640
C            2.30226084646877        4.64290959396635        2.54664429568773
C            1.37470919011644        5.46933110138332        3.15592284543203
C            0.07087968086803        5.50687801619258        2.65990036734619
N           -0.30492727307845        4.79901915990797        1.58940390169247
C            0.58050618648584        4.00854329269819        1.01177384094962
C            3.52266055741752        1.51210472549627       -2.60930452114911
C            3.57883054348051        0.19433556615622       -3.08072936094261
C            3.33536352179239        2.52503433751729       -3.55032986000010
C            3.18848562692590        2.17994860940925       -4.88318010012503
C            3.23402363182274        0.83311278535849       -5.24640177037237
N            3.44243748339623       -0.13610862004824       -4.34906678486967
H            7.05465288746970        0.33704271672380        0.55040543670718
H            8.29045619310999       -1.32581025378643        1.90886862424221
H            3.82615869726133       -0.02941659203310        3.36383118201695
H            3.31912301740182        4.61047482471429        2.90685175446361
H            1.65041005615781        6.07392058438788        4.00626266729075
H            0.21458069691960        3.42707916041912        0.17857153744941
H            3.70817504505429       -0.63318730622677       -2.40082902709861
H            3.31847347753584        3.56273080175210       -3.25453608754621
H            3.03888422004281        2.94016042712523       -5.63439040282914
H           -0.67105946025252        6.95135232625706        4.12460501205905
N            6.74188481700924       -2.10420493129348        7.48931318575003
C            7.85241701491554       -1.19543097404878        7.21731334912405
C            7.29805549171433        0.15968809872165        6.73626604753423
C            6.10307263079774       -1.77611538468326        8.76123804040630
C            4.66979709124302       -2.34166041213294        8.78241708234546
C            7.18339149878396       -3.49631942114544        7.46942762702834
C            7.38072991789252       -3.95382969098798        6.01111258651843
N            5.92892726643253       -0.00273022289599        6.37424772644070
N            4.30164953024882       -2.72168441534989        7.45931989687036
N            6.74091916718674       -3.01961089561700        5.14624966822015
Mg           5.17235215973211       -1.84839118996072        5.80516892740014
H            8.48114271520356       -1.63600876847587        6.44626308777621
H            8.47863170098597       -1.05388361183106        8.10778222960451
H            7.42941431448438        0.93430618800130        7.50367815329623
H            7.85046867654685        0.47900514917844        5.84683999671894
H            6.07643027096499       -0.69325731269970        8.86606142630549
H            6.67865256894867       -2.17159286159006        9.60823570122764
H            4.58786808817213       -3.18048321888901        9.48654656717203
H            3.98001935231861       -1.56039246019882        9.11713955885297
H            6.42094942074145       -4.10597900153816        7.95039807264224
H            8.11415176419987       -3.62749676055589        8.03667052195763
H            6.90513646936608       -4.92990659745481        5.87329479629365
H            8.44725697342038       -4.06760994892911        5.77465933109285
N            5.04168198337280       -2.53541836276589       -7.63930454825403
C            4.46628737258246       -1.62168200518721       -8.61652038328442
C            3.01757044122482       -1.30713478083565       -8.21322328633984
C            6.43925549662741       -2.25298573107151       -7.34744404210087
C            6.52110996044913       -1.24475172259082       -6.18885721597472
C            4.79937330662968       -3.93494444946527       -7.96397524006304
C            4.49659835934076       -4.70430366382487       -6.67006109002561
N            3.06997290736767       -0.84026613121293       -6.86861634064372
N            5.74561876111412       -1.79119652381326       -5.13085936357210
N            3.44714467730635       -4.00042646236811       -6.01007206373896
Mg           3.71344830259126       -2.07777232412566       -5.33209089395879
H            4.49504707839488       -2.02478077386821       -9.63685259368269
H            5.03399030777884       -0.68861872661199       -8.61295829826503
H            2.60240563661493       -0.56816239398194       -8.90961461516159
H            2.41984703176917       -2.21935781217131       -8.24407259594997
H            6.98053799828702       -1.86377238694769       -8.21890774691416
H            6.93373710112129       -3.17518948062265       -7.03448158262822
H            7.57361196828933       -1.09019356021281       -5.92064075990629
H            6.07233311544708       -0.29895780503373       -6.49666336327711
H            5.64480175702540       -4.39652908498230       -8.48947093169689
H            3.92707316008105       -4.00449702576013       -8.61745944222891
H            5.37555846527405       -4.69933535506539       -6.02393260016491
H            4.22617778253776       -5.73631002724531       -6.92458211290404
N           -6.82982509095228       -7.53759181544524        1.93746131763247
C           -7.22165725227440       -7.96695759762625        0.60193479006994
C           -6.84612832073394       -6.86897782991031       -0.40517442150333
C           -6.27357473247493       -8.61495572778855        2.74336321318125
C           -4.75704269013809       -8.68676061167179        2.50741018459579
C           -7.87510818313810       -6.79268072072194        2.62538687443039
C           -7.23236366363674       -5.63875106189507        3.40965042049402
N           -5.46618917285418       -6.58006099281294       -0.19210383482544
N           -4.24563408013512       -7.37954033948597        2.75138557268107
N           -6.42824838408497       -4.91454353902476        2.48153099330046
Mg          -4.79472746724591       -5.77745514770378        1.57752987677037
H           -8.29260545555016       -8.19531963916776        0.53098390422784
H           -6.67203316775809       -8.87427994968932        0.34180344499531
H           -7.05677473200408       -7.22770311591694       -1.41989779961277
H           -7.42610485860973       -5.96746772479851       -0.20344367086479
H           -6.73497188538280       -9.58611612489962        2.52345076605505
H           -6.44650855152754       -8.39753718936097        3.79960355132233
H           -4.32670284832875       -9.44667727222475        3.17115258789986
H           -4.55896189794031       -8.95020473947716        1.46736444498054
H           -8.46743290227458       -7.42447989068309        3.29937593669996
H           -8.55659118413031       -6.36737677407064        1.88540213618843
H           -6.58530649873294       -6.03877177009476        4.19151965575262
H           -8.02442003086616       -5.02712862484329        3.85840161492425
C           -1.36241644442857        6.28384920170975       -1.58004837685995
C           -6.88840332455737       -3.89517013240252        1.89374909663440
C            2.24199929481604       -4.34642694273013       -6.16668338380583
C           -3.38769361522219       -1.28305263347630       -1.68748147142185
C           -3.26462968712872        0.10251294351027       -1.60885031049745
C           -2.30053596610274        0.77039750319839       -2.35893449172058
C           -1.45879915581811        0.04320225199719       -3.19656623615520
C           -1.57245851829745       -1.34192942681957       -3.28274586582507
C           -2.53897012722208       -2.00085300770209       -2.52655046433017
C           -4.37994351056942       -1.97255188804138       -0.84735809282933
C           -5.64586078191611       -1.42917194601294       -0.62195750267162
C           -6.50112770820869       -2.06580861958424        0.25957331781028
C           -6.07557405843551       -3.23518082590478        0.89118744416964
N           -4.88470912468290       -3.78810594504872        0.63456963333284
C           -4.06713058322585       -3.17672264762267       -0.20264159632205
C           -2.13057865995118        2.22685478262690       -2.23703746319538
C           -1.84149588987121        3.02653552571101       -3.34371156731660
C           -1.60593972386294        4.37596117832756       -3.14922469387246
C           -1.66596090470030        4.89486610411857       -1.85516718177047
N           -1.98778124829670        4.14045097114656       -0.79885428286871
C           -2.21004103660402        2.85263056205200       -0.98621847106994
C           -0.64821131972173       -2.11206377100955       -4.12978605914925
C            0.71199169283180       -1.78068095883519       -4.18439825232779
C           -1.07595908704420       -3.21288028677583       -4.87304635065084
C           -0.14052597081969       -3.94689993540631       -5.58123377856580
C            1.19954283659965       -3.56064357602978       -5.53567997169960
N            1.60343663703266       -2.47560150509974       -4.86488003441813
H           -5.96208222959878       -0.53092499221318       -1.12978052134673
H           -7.48098002125715       -1.66262188312683        0.46455625699515
H           -3.10303027475919       -3.64543832618142       -0.33835327643451
H           -1.81255146701137        2.60863885191754       -4.33836369023081
H           -1.37196286822256        5.02007663322852       -3.98283468817703
H           -2.42553445128564        2.28053407584908       -0.09600607799020
H            1.10248066823437       -0.94560669006114       -3.62150561372524
H           -2.11874462157601       -3.48889826914378       -4.90591573888491
H           -0.43862478465646       -4.81177291134629       -6.15376825985494
H           -1.16370924750267        6.94502056137526       -2.42684706495377
H           -7.86610069268264       -3.46759739502513        2.12812568629296
H            1.94898459090424       -5.23736395223459       -6.72722881811055
C           -5.01920179554186        4.65610871752379        1.21703167557766
C           -3.72944547409370       -7.08856674932856        3.86713585452669
C            5.05113285439214        0.79811074407903        6.80346199582522
C           -1.98620763768204       -1.75013850474055        4.50621956510420
C           -2.73476654252246       -0.70463593754688        3.97135686007467
C           -2.24659448675083        0.59936441375697        3.99714397028892
C           -1.00243730519032        0.85514458012285        4.56779216026839
C           -0.24491575660957       -0.18278221021470        5.10451407405373
C           -0.74247020342412       -1.48306495263765        5.07291762714571
C           -2.47844766981191       -3.13481412878317        4.43302693134018
C           -2.28449055915559       -4.04079107058237        5.47682841773201
C           -2.70444095409951       -5.34913965525398        5.31390711259446
C           -3.31697009184133       -5.72137406269125        4.11639707374250
N           -3.53764161747616       -4.84588592005237        3.12924860192911
C           -3.12859049234084       -3.60047706073245        3.28261857210496
C           -3.02242368369978        1.68369304165136        3.37488225502520
C           -4.41242955956729        1.74820867640360        3.48182487794670
C           -5.09007032966311        2.73921483743005        2.79398434045159
C           -4.36357087336670        3.64375704856493        2.01849810631789
N           -3.02823378870559        3.61571864086675        1.95483495181515
C           -2.38379857743348        2.66721950579205        2.60864580553617
C            1.09373992835441        0.09256367611282        5.64984441936899
C            2.15936501438423       -0.77930634734842        5.39198791337718
C            1.36365253489018        1.24057101505604        6.39615090977329
C            2.66344899883795        1.48198338270058        6.80480921483596
C            3.66230545929814        0.56992801777227        6.46182574521510
N            3.39896058647796       -0.55244536799881        5.78447435465234
H           -1.82603476651451       -3.73031462425658        6.40319671352893
H           -2.56058310964630       -6.07508871287824        6.09939157264317
H           -3.29356085286706       -2.94721110705760        2.43810598673957
H           -4.95491108446532        1.04717325972615        4.09736915919409
H           -6.16551460031571        2.81033079860732        2.84822041038422
H           -1.31058418148636        2.66348988356430        2.48828682871301
H            2.01090936552776       -1.67800293488665        4.81165683170335
H            0.57537473427530        1.92768320961325        6.66280371254120
H            2.90622247831268        2.36507959824985        7.37565727571746
H           -6.10469500766802        4.75205355027325        1.29609695203609
H            5.29436237411731        1.67016737996136        7.41492916390696
C           -4.57829172199277       -7.16254812267397       -0.87701904039802
C            6.28486983796171       -2.38150730287975       -4.15578308237781
C            3.79794015544813       -3.85811051027910        7.23518030806706
C            2.93586844868584       -5.07789097326641       -0.48083263751466
C            1.67455140771025       -5.60701602253612       -0.72664330102721
C            0.78039794082462       -5.83826445940036        0.31498703477599
C            1.18164440566416       -5.58226825581109        1.62298789786307
C            2.44832408864617       -5.06831755859894        1.88375150277642
C            3.31086000599582       -4.78667315941827        0.82379853446441
C            3.81909980592964       -4.76094249069308       -1.66767412251211
C            5.27222853723711       -4.59255861261409       -1.34767341316159
C            6.02315244018060       -3.75389366658069       -2.06878256564446
C            5.42034389918050       -3.02435278731156       -3.17154320919987
N            4.15286535398943       -2.91335002142407       -3.34110948906756
C            3.28423261713972       -3.47337499719726       -2.33483439876820
C           -0.58290720525203       -6.30110113644370        0.01946035037183
C           -0.84498412641875       -7.21539056369845       -1.00239625245815
C           -2.15907126339834       -7.52566388197029       -1.30305339974576
C           -3.18273103879475       -6.93068536903255       -0.56437913701917
N           -2.93295650835708       -6.09831754584314        0.45271556920800
C           -1.67925574684755       -5.78971890201280        0.72665839067940
C            2.84756487140591       -4.82196458522055        3.27874923613256
C            3.54602821771433       -3.66888264226340        3.66021117185529
C            2.50805987101071       -5.73320110617909        4.28112636484131
C            2.83147535678218       -5.43914814660073        5.59254083958778
C            3.48967665924657       -4.24136302469421        5.87384304455710
N            3.85727699634561       -3.38627334101278        4.91327063958174
H            5.70857246399096       -5.22455032055178       -0.58941245436520
H            7.08394383869415       -3.65334537254124       -1.90182621706992
H           -0.04050669977929       -7.68233805147478       -1.54946628507486
H           -2.39334667505417       -8.21526812608561       -2.09947518875553
H           -1.53745262481305       -5.07373546473534        1.52345940811787
H            3.83548994230286       -2.92848496608841        2.92873325287536
H            2.01261332465857       -6.66111947795773        4.04027949948118
H            2.57625820498123       -6.12008157996268        6.38983529730668
H           -4.81554917761895       -7.82214650734666       -1.71503328582457
H            3.57056169622459       -4.57037468702302        8.03195916230386
H            2.89299421604104        1.15660062173452       -7.38625931038410
H            3.66458018965953        2.25329197680074        2.66964734126546
H            2.13968137038964        3.33126697625115       -1.17620507418226
H            5.10284710912806        0.27083060115404       -0.82794183860956
H           -3.92221406923581        0.66373145347258       -0.96486032841997
H           -0.71494649913193        0.55586615701989       -3.78448410113808
H           -2.63214930629448       -3.07282143613897       -2.59332787372480
H           -3.70059715668643       -0.90607760855514        3.53717492598653
H           -0.62484309998897        1.86433278930545        4.59596780263849
H           -0.16130444727980       -2.28762263623742        5.49311755642321
H            1.37633026800669       -5.81810006472004       -1.74118536838387
H            0.50861555858472       -5.78973243365554        2.43880508824994
H            4.28518084518685       -4.37364789227831        1.02909029232347
H            8.36751336601249       -2.84029413566532        3.87853106982524
H            7.36707244385719       -2.42976045170583       -4.01427885363462
H            3.14471227069381       -2.70711749501239       -1.55838188206313
H           -3.56329383845365       -7.82930340939210        4.65273947222294
H            3.75082567578709       -5.60184131187714       -2.37464779185308
H            2.31950644998639       -3.66119088460179       -2.80165335128805
