260
 energy: -393.833173858537 gnorm: 0.000132832270 xtb: 6.6.0 (83090be673e2468c27fcd74d519548d8d51bd8df)
N           -5.67914820445333        8.10463229142801       -1.80928530335012
C           -6.99579639433226        7.81069114062839       -1.26804866391088
C           -7.71619430784475        6.65555864726119       -1.97147742508974
C           -5.74439866534326        8.46128269216881       -3.21717373626511
C           -4.37310926222284        8.67367976931879       -3.86948527184218
C           -4.99142808584122        9.11716505167241       -1.02531281480537
C           -4.76663230138163        8.71814375066277        0.43843230860406
N           -6.82481110539909        5.57706500692484       -2.26049764091569
N           -3.42681669854473        7.70192240207895       -3.42462645270083
N           -4.41528395773902        7.33942774456754        0.55383664016863
K           -4.31465485390666        5.97404151973774       -1.68258910589156
H           -6.86111690149279        7.52914211141669       -0.22583835758595
H           -7.65690931274676        8.69534536694908       -1.30377802607971
H           -8.23632421493445        7.00451658076334       -2.87551647790432
H           -8.49242069267014        6.29492142683429       -1.28550647110748
H           -6.23319309053871        7.63881666153728       -3.73520235635926
H           -6.34234498413573        9.37626317058302       -3.37844777993426
H           -4.01175779789945        9.70129669088789       -3.71071550706699
H           -4.50831611989419        8.55061914377176       -4.95051463167371
H           -4.01491814092867        9.27000765604506       -1.47916168997941
H           -5.53240084827157       10.08034021047227       -1.03741243246107
H           -5.64043257653447        8.97057244042478        1.05804536691265
H           -3.93111055451256        9.32125524661084        0.81284602186397
C           -7.12268898485492        4.73585103367614       -3.15040649486861
C           -4.27907409768966       -6.92947505768983       -5.45456501401609
C            3.58402412929781        2.04664221930319       -8.21640795002095
C           -2.78800207393678       -1.47152220109205       -5.43933296481241
C           -3.71940644951145       -0.59035169904353       -4.89749791776888
C           -3.47064600705381        0.77817795144348       -4.88965108772960
C           -2.27270002999261        1.26141259015470       -5.41016692333351
C           -1.33505849430890        0.38837973715606       -5.95173275589067
C           -1.60052868458218       -0.97867988108038       -5.96746862794060
C           -3.08400868471431       -2.91198422896634       -5.47748865343916
C           -2.98384266357499       -3.64319327525376       -6.65982522868636
C           -3.35704068629908       -4.97428285389799       -6.65812161962313
C           -3.79696304013288       -5.55422723700270       -5.46408537785734
N           -3.83850665378743       -4.86905444555987       -4.32225482152577
C           -3.50530320326250       -3.59737537697367       -4.33299476024330
C           -4.47419818476808        1.72536975128329       -4.38223363375702
C           -5.81369621793675        1.63313515040025       -4.75854431341538
C           -6.69816516124332        2.60825671581432       -4.33743618339995
C           -6.22894141747368        3.64876580786994       -3.52926968417111
N           -4.96109298153384        3.70528036804642       -3.12304403549332
C           -4.11945082656300        2.78476609526586       -3.53878314000284
C           -0.08148895442918        0.89354037720886       -6.52898917599365
C            1.14154322313198        0.26703407330053       -6.25917725934300
C           -0.05718911262779        1.99677232493512       -7.38070208019630
C            1.14694979198232        2.39204583288653       -7.93377921726749
C            2.30665257416835        1.67741346339821       -7.61941853478499
N            2.28799803502814        0.64222179144464       -6.77930937119270
H           -2.65368066884582       -3.16758690082751       -7.57189858541178
H           -3.31522737025636       -5.55700295236719       -7.56595404191114
H           -3.57016163321248       -3.09161058873751       -3.37900052679369
H           -6.14904045311345        0.83272717821607       -5.40165645830719
H           -7.73484661818508        2.57396684746212       -4.63664792882908
H           -3.10426108265133        2.88768954367379       -3.17902262631239
H            1.19300218247915       -0.57109714619271       -5.57747095693293
H           -0.96964330581537        2.51930121730459       -7.62811232947451
H            1.19023143453521        3.23429181187780       -8.60766860376608
H           -8.06848982680147        4.77998664112985       -3.71067010880422
N           -6.60267297147623       -8.10412352217733       -2.67857450930063
C           -7.57169136691112       -7.65821276452442       -3.66584516774955
C           -8.33415622699478       -6.39207628497692       -3.26180535764190
C           -7.23859097417652       -8.41053147203096       -1.40752515160789
C           -6.25738123593171       -8.79373623496421       -0.29353803159727
C           -5.80758089832976       -9.21757546099503       -3.16963804339948
C           -5.00763933508465       -8.89266935384175       -4.43749518414623
N           -7.47253321222743       -5.43295758263770       -2.64475576762380
N           -5.08777182249281       -7.97574789528523       -0.32126933357219
N           -4.46827019623986       -7.57234189147637       -4.38769296672320
K           -5.00562765238103       -6.19134464877861       -2.22685399670475
H           -7.02486342866134       -7.43547627775614       -4.57942877676487
H           -8.31373763094789       -8.44517704463243       -3.89194919824149
H           -9.19126191541353       -6.63571768442611       -2.61781269923799
H           -8.74943297467410       -5.95813463179519       -4.17972775419327
H           -7.76797420149153       -7.51477995295939       -1.08916852756036
H           -7.97340327581976       -9.22949773053772       -1.50801367592575
H           -6.00901195981628       -9.86532295687411       -0.33356099342127
H           -6.77233189200088       -8.62540980955056        0.65973009809311
H           -5.09684432063320       -9.47694303250972       -2.38826765335515
H           -6.43162604599809      -10.10504358375522       -3.37777131327509
H           -4.17396354462590       -9.60286190250112       -4.48428838424898
H           -5.61327609481471       -9.05496926266286       -5.34248094941589
N            6.92462390929673       -0.44514110785639       -8.16364502766002
C            6.55129551158523        0.54874996724672       -9.15694394843195
C            5.88308884617230        1.77838756935402       -8.53276820374420
C            6.93713995852650       -1.78862878670296       -8.71860645363612
C            5.53805113717001       -2.40323577180964       -8.82877750194596
C            8.18956086900313       -0.11570128991615       -7.52750993398968
C            8.29056997791845       -0.64907224989513       -6.09375680606750
N            4.63965204714944        1.41623080746402       -7.94616851465476
N            4.98925711303007       -2.63699809578642       -7.53716217606391
N            7.30639501717251       -0.02959454762585       -5.27577070146125
K            4.98619845842488       -0.44416075782648       -6.23684759521958
H            7.42361536158727        0.88231237064307       -9.74158768404711
H            5.84047921791266        0.10380162614024       -9.85398861378375
H            5.77862595604535        2.55968658899235       -9.30450169220036
H            6.51796209996124        2.16482482110998       -7.73204850708889
H            7.40367722631932       -1.80580229529927       -9.71726601465675
H            7.52986217985946       -2.43122716152518       -8.06647904791522
H            5.60234599028119       -3.32398379679591       -9.43304398398656
H            4.87410705032147       -1.70158696481338       -9.33923328366198
H            9.04427426671933       -0.50268353787651       -8.10510625775640
H            8.28836269952258        0.96956968488744       -7.48197773990862
H            8.08924290305131       -1.72243191307937       -6.09213557571614
H            9.31715365042773       -0.48147240947086       -5.72626287163524
N            3.62908583689071       -1.17661021095820        8.18029224327246
C            4.99183347494790       -1.66986509804959        8.06634007180815
C            5.70123873313831       -1.17425699155614        6.80058523360323
C            2.78908035443926       -2.09567053414794        8.93119704919839
C            2.25968639242983       -3.24547841111811        8.06740003624007
C            3.58892616333050        0.16726584374482        8.73298830641133
C            2.33795209125329        0.94781096816799        8.31631153453372
N            5.04373189785447       -1.68401809208701        5.64783695359089
N            1.40089583681211       -2.73969938572852        7.05378985311771
N            2.35734291003767        1.21910487702496        6.91981500484232
K            2.60033524195755       -0.98371867040781        5.65129219689280
H            5.59830976303418       -1.38410912679735        8.94070152469937
H            4.96834548577810       -2.75948687496606        8.02392480051772
H            6.76260174238187       -1.47041566407114        6.85211398503311
H            5.64372700811533       -0.08461941950716        6.75602453204522
H            3.32740448894152       -2.52291944490656        9.79231906859708
H            1.92812880630095       -1.55122584861864        9.32038639333442
H            1.76239558559440       -3.98311861628643        8.71959082999857
H            3.09877969853864       -3.73453328519702        7.56753253743396
H            3.63662155501343        0.14935962665850        9.83412808883683
H            4.45818743957470        0.71957632608687        8.37441320096010
H            1.45117095261004        0.34145724343745        8.51486216370867
H            2.27500543093764        1.86645673677840        8.92388822835548
C           -2.19927795838954        7.98495976705120       -3.39855452206988
C            2.17899252280824        2.38902824709433        6.48945958491085
C            7.62520685637947        0.59284530497044       -4.22893412109257
C            2.40915360358172        3.46499252210835        0.93254430749166
C            1.49438884295665        4.27145436061184        0.26307878040183
C            1.62981246946305        4.50800012650254       -1.10200667983770
C            2.67734991768227        3.91993111187393       -1.80174418959017
C            3.58985928634157        3.09930491075236       -1.14439976082289
C            3.45436248903612        2.88020063832104        0.22211895080192
C            2.29255983958522        3.23518418366308        2.37945691899101
C            2.03170819451913        4.27566804244000        3.26964852145391
C            1.98463692409212        4.00424814745290        4.62468337177229
C            2.19231305904808        2.69323836458706        5.06435536692221
N            2.40998858980060        1.69252817865043        4.21035031511739
C            2.46013454482851        1.95576407335451        2.92396678014026
C            0.67415423910798        5.39256322618389       -1.78608782115886
C            1.10446097197649        6.45024635501268       -2.58527132603618
C            0.16336466638651        7.29987742321315       -3.13626445484405
C           -1.19303324922576        7.05718462584644       -2.89779640161916
N           -1.60565373238587        6.01355298823283       -2.17939254270560
C           -0.70665922326956        5.22117563585662       -1.63848967766893
C            4.68154060034299        2.46282497827287       -1.89517601254399
C            4.42900132837225        1.80964636104083       -3.10748646801887
C            5.99785631481374        2.47122398316668       -1.43758249075848
C            6.97768174675222        1.86228030190874       -2.20034216696297
C            6.61695880373992        1.24095097759290       -3.39940620068597
N            5.35417940047008        1.21639072768066       -3.82688676741842
H            1.89614552495156        5.28496030751639        2.90957454869949
H            1.80010316453029        4.79558382879877        5.33537586050644
H            2.62896733956902        1.10327242172023        2.28019059512692
H            2.15891580673354        6.62490224254988       -2.74226057366499
H            0.47048558514442        8.14225066081663       -3.73754402832223
H           -1.10108028175392        4.39644560912289       -1.05998706047269
H            3.42375316896291        1.75136700163472       -3.50237953980051
H            6.25399022544693        2.96623843297713       -0.51219713751194
H            8.00730595071097        1.86760330973603       -1.87601591391659
H           -1.81222029224694        8.95791788055284       -3.73689075133901
H            2.00114008301625        3.24432322118298        7.15827242371505
H            8.66502344985505        0.67632774405599       -3.87968161646906
C           -4.66497975187343        6.71119238890030        1.61708599687752
C            0.24458592825948       -3.20735560011316        6.88374046576228
C           -7.96349222936621       -4.49375497236830       -1.96229870532390
C           -3.13521335104576       -0.93343329392123        2.94880803484057
C           -3.18908929785531        0.45755246163421        2.90804797636783
C           -4.00217627823293        1.10494975564523        1.98467057753194
C           -4.77097595711303        0.35378391260335        1.09933099570887
C           -4.73269337730160       -1.03601003995382        1.13813668534272
C           -3.90674835411818       -1.67471350791684        2.06015188991086
C           -2.28486414221025       -1.59861706890444        3.94607702204457
C           -2.74379379482132       -2.67516170341141        4.70353725847259
C           -1.91531096207827       -3.22078300686457        5.66702991779350
C           -0.63814576048625       -2.68228189214319        5.84935831423000
N           -0.18700549708469       -1.67554236552798        5.10055442311969
C           -0.97886676554999       -1.15601618864088        4.19040621655157
C           -4.08620388202264        2.57263207833400        1.95569608447614
C           -4.27995809082263        3.31551159940904        3.11943566969189
C           -4.44662168518037        4.68437717688576        3.02218061282351
C           -4.39465885525891        5.28643609704601        1.76112805506782
N           -4.15145461473845        4.58323202889738        0.65591580036819
C           -4.01136613357100        3.27982719951369        0.75043778343374
C           -5.58719054133125       -1.84098374942136        0.25288127751169
C           -5.09031391181970       -2.96416075702092       -0.41929939391194
C           -6.93999851574783       -1.54727516196620        0.08573684684627
C           -7.72385128769326       -2.39919243486948       -0.66962586879592
C           -7.13547111152551       -3.52454729621587       -1.25620912219236
N           -5.83040485033766       -3.77092946143061       -1.14690765113415
H           -3.74277783578973       -3.06035285965257        4.56095358144192
H           -2.25330493031457       -4.04405853172698        6.27801272885572
H           -0.55238192609502       -0.34932864289721        3.60974054725662
H           -4.33714006500519        2.82480312862107        4.08001429833165
H           -4.62416805481529        5.27948302638260        3.90525644372264
H           -3.82284372172940        2.76437353906115       -0.18170233361016
H           -4.03984625821448       -3.21802763488154       -0.36770712815723
H           -7.37894205834610       -0.68846167093867        0.57217142595240
H           -8.77916157290031       -2.20791963075181       -0.79266952509062
H           -5.12423896632945        7.19309285929049        2.49332032016327
H           -9.04818602401347       -4.36129891912740       -1.83585393030793
C            5.66360807234138       -2.36103054566903        4.78622400020166
C            4.51556772156631       -3.76355535593235       -7.23347091382088
C           -3.99692216109397       -8.42098530285748        0.12561737534462
C            2.47968840096083       -4.70577908715790       -2.03180933339430
C            3.24721573717651       -4.24308641826064       -0.96591296370347
C            2.82504664028036       -4.43436590255467        0.34520860482252
C            1.62995003025292       -5.10533184743238        0.59016282592192
C            0.85629247753893       -5.57165896725351       -0.46641931573639
C            1.28040776004175       -5.36271948268684       -1.77576619723464
C            2.94881505186026       -4.50297080476661       -3.40979833176238
C            2.90219966843198       -5.52157262392851       -4.36025717824636
C            3.40822565463318       -5.28393278627588       -5.62489056113829
C            3.94433878709983       -4.02648151751138       -5.91885637902822
N            3.95687161682849       -3.04129756568833       -5.02031937034454
C            3.48203821072658       -3.27359710348930       -3.81738803031051
C            3.62242195020917       -3.91859352775330        1.46684936335782
C            5.00325927147677       -4.09283928934948        1.53927413573716
C            5.68800178117610       -3.58597857036799        2.62887225260479
C            4.97759144361691       -2.90115628064124        3.61888632079443
N            3.65905487487599       -2.71896189769592        3.53977244850663
C            3.01063648574500       -3.21367429344521        2.51044947851695
C           -0.39892607669733       -6.29606414620811       -0.21467497482595
C           -1.58111664095217       -5.94744049895335       -0.87710247000078
C           -0.45593158352387       -7.37233195280071        0.66905558770040
C           -1.64325648033500       -8.06782694635720        0.80254648825118
C           -2.75836045923248       -7.65530488127503        0.06651779671175
N           -2.71785439775251       -6.59271273484468       -0.73644601795004
H            2.50319692325629       -6.49233870002512       -4.10525152097576
H            3.39928618792437       -6.06198554064519       -6.37310121906278
H            5.52908049563196       -4.63605095184845        0.76770622752059
H            6.75577690807330       -3.71925400277783        2.71570877926128
H            1.94518353652677       -3.02845342844363        2.49894948894541
H           -1.60733525578984       -5.09917111794652       -1.54809002205650
H            0.42360793455648       -7.68080248775773        1.21512783991751
H           -1.70752042837665       -8.92167719304453        1.46003567163312
H            6.73989421506171       -2.57619450796107        4.85878723473259
H           -3.90777115510646       -9.42303134417051        0.57126361550189
H            3.56342068765560        2.90213226441447       -8.90777147626864
H           -4.64438051535363       -0.97384216555813       -4.49394118747685
H           -2.07802692863386        2.32332657507487       -5.40410847092918
H           -0.88404555276890       -1.65943316835657       -6.40147717930832
H            0.67783980826376        4.72540019987884        0.80415615749232
H            2.78705507504321        4.10430555309415       -2.85964084457674
H            4.16795779727928        2.25546546541702        0.73732121148236
H           -2.60250956013644        1.03641494720495        3.60506999532586
H           -5.41042732813027        0.85633281346077        0.38937401310121
H           -3.87662308060751       -2.75339320179449        2.09266586983858
H            4.17944496459964       -3.73450150486008       -1.15879239085453
H            1.30485670020563       -5.26821189333446        1.60642611854416
H            0.67580189728217       -5.72185897379715       -2.59480568378495
H           -4.48624056191103       -7.36019968356314       -6.44598521622971
H            4.50158080304402       -4.60849432169845       -7.93792746890910
H            3.51136064194087       -2.43461327581072       -3.13536779728524
H           -0.16194339545311       -4.02632587407653        7.49544164630038
