260
 energy: -393.913801315402 gnorm: 0.000175241190 xtb: 6.6.0 (83090be673e2468c27fcd74d519548d8d51bd8df)
N           -5.70573656699892        7.99879886701773       -1.73066238469312
C           -6.97442670585239        7.77224536074200       -1.05908509503155
C           -7.71881463344898        6.53879284765044       -1.58348242633716
C           -5.89269682093272        8.28439061980807       -3.14336446398366
C           -4.57592303638672        8.30415054200755       -3.92901414742366
C           -4.93371279875749        9.04021182843331       -1.07371440415141
C           -4.52591180243162        8.67209048105921        0.35823369315266
N           -6.80484042731909        5.49312830037711       -1.91157219611789
N           -3.67502254919147        7.31558581492168       -3.43263611024950
N           -4.23572912961163        7.27908732480922        0.46248847839279
Na          -4.46187162152260        5.96872614520509       -1.56695938204456
H           -6.75734506028952        7.60939383414751       -0.00632582525925
H           -7.64268200621433        8.64726282422661       -1.14237384327128
H           -8.36763679733913        6.79658896411881       -2.43442383615982
H           -8.37579369720075        6.18458888233555       -0.78072403179405
H           -6.51440380343642        7.49229640386362       -3.55327713557441
H           -6.41085335668075        9.24668094599631       -3.30094627009037
H           -4.12462246243310        9.30818349077355       -3.92669283848499
H           -4.81060398294624        8.06501034174740       -4.97271332470160
H           -4.02557824193784        9.18353051301466       -1.65410751006676
H           -5.48137015479925        9.99864759940829       -1.04729995839964
H           -5.29172733422216        8.98561653631584        1.08417068054616
H           -3.61535502191967        9.23378826927883        0.59653473705110
C           -7.10856547336108        4.64754078489934       -2.79485186301540
C           -4.02796150542952       -6.91918557418326       -5.12031611608998
C            3.69959706720665        2.20793111990471       -7.83811682274822
C           -2.63637271827015       -1.43578428434889       -5.13319667107775
C           -3.59492786174684       -0.56765630914135       -4.61645941659689
C           -3.36936029613116        0.80451484850512       -4.60106423235187
C           -2.17052721459966        1.30753944288242       -5.09963511764009
C           -1.20711244819437        0.45113948195451       -5.62332781673685
C           -1.44660546379497       -0.92108793536132       -5.63664048560215
C           -2.90481961021682       -2.88024643644939       -5.16153043955872
C           -2.63514288041823       -3.65719369718573       -6.28738805848966
C           -2.98178828978998       -4.99553573323284       -6.27726535476834
C           -3.57839330845519       -5.53456841707730       -5.13318027198071
N           -3.79278968397462       -4.80328131298029       -4.04090306692401
C           -3.47315436154789       -3.52911165506650       -4.05855160966871
C           -4.39336818710950        1.72950697087917       -4.09536219065349
C           -5.73681399786521        1.59193374459333       -4.44245253773513
C           -6.64349268260679        2.53832997473995       -4.00303347638197
C           -6.19075879732309        3.59562735238017       -3.20761582945858
N           -4.91614625387158        3.70004358360008       -2.83580089181074
C           -4.05457283901915        2.80696853333600       -3.26787182324367
C            0.04372695324480        0.98125919700342       -6.18243287853978
C            1.26892191534230        0.33971420503971       -5.95779717055893
C            0.06467366020250        2.12885044244308       -6.97449382490761
C            1.26533807757765        2.55442924480190       -7.51234654244354
C            2.42504562617824        1.81926342427008       -7.25009180448241
N            2.40993665853911        0.73849582859070       -6.47058152701266
H           -2.19576018038732       -3.21324084527708       -7.16863888897229
H           -2.80418113742675       -5.61425597017870       -7.14382326127801
H           -3.67288337031259       -2.99101297186013       -3.14327278443066
H           -6.06005573162037        0.77887292950885       -5.07572077157415
H           -7.68520258330006        2.46807217501835       -4.27721522532553
H           -3.03704964222960        2.94817867690973       -2.93342885652523
H            1.33062529837842       -0.53151416499898       -5.32165032995414
H           -0.84839660111810        2.66417385682864       -7.18944374491423
H            1.30471950385046        3.43303666689738       -8.13825982724017
H           -8.07711579542407        4.66239949726949       -3.31582466055393
N           -6.63633158503800       -7.95786951483844       -2.59478981499092
C           -7.52179198563652       -7.59992525804040       -3.69021418075181
C           -8.24475575298321       -6.26651682489243       -3.46577305735265
C           -7.37381293399843       -8.16923486787524       -1.36044856072604
C           -6.46321194364809       -8.33315833620789       -0.13805354227968
C           -5.81240108561774       -9.10759613605091       -2.92864528989819
C           -4.85679129050139       -8.83974653838685       -4.09753878685410
N           -7.39618093259793       -5.33477951458957       -2.79658618196288
N           -5.32480675610392       -7.47820241570440       -0.23396880358960
N           -4.36684846375883       -7.50047244750252       -4.05514151837920
Na          -5.17547132885690       -6.11570133859376       -2.22808345111493
H           -6.90807072360167       -7.50108449469145       -4.58228469301847
H           -8.27820834500818       -8.38252458237902       -3.87618256677930
H           -9.19411933184065       -6.41304215965507       -2.92863640648568
H           -8.49897621305097       -5.85925937146180       -4.45118631330706
H           -7.99270136265414       -7.28977422691929       -1.20009229061712
H           -8.03580431460629       -9.05056342546187       -1.42597710027974
H           -6.17366661486010       -9.38529454044197        0.00572630651732
H           -7.04246581021871       -8.04126501574148        0.74562373236483
H           -5.21162753448013       -9.33947559496630       -2.05258497206403
H           -6.42564306326306       -9.99314614031102       -3.17161622488317
H           -4.00588933631579       -9.52243680924525       -3.99104414202045
H           -5.33165772504298       -9.07194983601104       -5.06311994385795
N            6.80121672170503       -0.43325876308405       -8.09908761636189
C            6.56468452457363        0.70132023889511       -8.97479032491918
C            5.98308646114260        1.90024531494687       -8.21907956002134
C            6.70045933023156       -1.69760119907511       -8.80721648432744
C            5.24709890035438       -2.15611436382212       -8.96221856043062
C            8.05686817633821       -0.31191741178322       -7.37904990193516
C            8.01715341422694       -1.03070656613730       -6.02671216111195
N            4.74327355408959        1.53639500492672       -7.62708172406373
N            4.65911651717157       -2.32493028029025       -7.67930920401572
N            6.99686213729206       -0.46487889458569       -5.21484799806879
Na           4.92657764465895       -0.41610970064967       -6.33092323583344
H            7.48602322973980        1.01859151734273       -9.48901607815925
H            5.84266058805269        0.40917970514672       -9.73788217976919
H            5.89338285840274        2.75270625858406       -8.91324016387281
H            6.66027667810209        2.17890879652319       -7.40876212353422
H            7.16428543805377       -1.64417362395662       -9.80521689700579
H            7.22930518681148       -2.46110736809543       -8.23588670099629
H            5.22417672866269       -3.07677808242000       -9.56912658273287
H            4.67819610588372       -1.38140959481283       -9.48090726841082
H            8.90265147817193       -0.70495442959901       -7.96553990304229
H            8.24863724256213        0.74414736988705       -7.18673836605280
H            7.76251046285918       -2.08103929032054       -6.18353863226723
H            9.01572292699348       -0.97384075001328       -5.56169075421589
N            3.51950567295190       -1.12806046657627        8.21083666967940
C            4.93300171113308       -1.41083522068789        8.03070445139709
C            5.50628579137079       -0.71437198598245        6.79229370622710
C            2.82889960497035       -2.21447123702956        8.88385803183157
C            2.44134887814457       -3.33696662920356        7.91564121577165
C            3.29925234242368        0.14841626866095        8.86826979860773
C            1.96274516140805        0.78000808204088        8.46611626144599
N            4.81470351944396       -1.15878317540374        5.63309540500868
N            1.57398869796633       -2.82451091594883        6.91308522526582
N            1.94329007249868        1.00480968924877        7.06288693722072
Na           2.48861322850532       -0.93638166949709        5.86795108581995
H            5.52396216498598       -1.11319783074223        8.91163018661536
H            5.05939138098554       -2.48532099709388        7.89407816415404
H            6.59165257364628       -0.90457521200536        6.74372873375677
H            5.34288738693195        0.36235688803336        6.87482691911391
H            3.43626791066407       -2.64166069216862        9.69765461761815
H            1.91041318627545       -1.82560292953188        9.32448659343782
H            1.99224205974442       -4.16531630386695        8.48886929117597
H            3.33818001509861       -3.70446934624047        7.41245657435115
H            3.33111841145854        0.05297149911990        9.96550801686188
H            4.09250724645651        0.83519844743540        8.57145871661460
H            1.15226523854669        0.08464236380259        8.69470742813125
H            1.81185002582814        1.70307566962058        9.05063489278742
C           -2.43116750675952        7.48711131027426       -3.53597623634073
C            1.68991624989872        2.14347738651453        6.58961106224087
C            7.25227331252043       -0.02638748057928       -4.06275304492283
C            1.93717740378039        2.91877254910801        0.98516197657623
C            1.06369783927949        3.73693155000345        0.27577378817343
C            1.21804624759060        3.91723291622688       -1.09622338985919
C            2.25050646196654        3.26481689728680       -1.76129449186936
C            3.12696228733942        2.43605359244058       -1.06467849552096
C            2.96436001551313        2.26717968108505        0.30667294020753
C            1.80560854817570        2.76254079952080        2.44003728453483
C            1.50550138861598        3.84458477834673        3.26744456652735
C            1.44723405036888        3.65164506922826        4.63542491323164
C            1.69502173706061        2.37658151514204        5.15199820185767
N            1.95210475692986        1.33626995052860        4.35990349656276
C            2.00242427923443        1.52196200261198        3.06104662832646
C            0.30702928934269        4.81813278649302       -1.81607789810995
C            0.77723041952830        5.75129333138489       -2.73919049191964
C           -0.11939709809971        6.62435518976959       -3.32657256878646
C           -1.47410298686708        6.53459896445242       -2.99172804188623
N           -1.92935964208385        5.61427482793591       -2.14347382010027
C           -1.07232031400324        4.79579202625468       -1.57627190684743
C            4.22518703186409        1.76892995300674       -1.77685793052156
C            4.02815666649864        1.19663151927724       -3.04048422498020
C            5.50923773198033        1.69095866565356       -1.23847987723842
C            6.51269063595432        1.08790070442232       -1.97427873389843
C            6.21240741603889        0.57607368857085       -3.23998611894465
N            4.97949265930964        0.62660981936530       -3.74342936054089
H            1.34898239335503        4.82825349975073        2.84984856336122
H            1.22900071713935        4.47675974890837        5.29638146558945
H            2.19786578774132        0.63334331862232        2.47828660518157
H            1.83152666132868        5.81686997576133       -2.96493480058285
H            0.22202110707288        7.37126177163300       -4.02722308409033
H           -1.50445414197140        4.07536888436861       -0.89686146626155
H            3.04953935880136        1.18794554686916       -3.49869077080698
H            5.72598049037990        2.11986096678422       -0.27123102290886
H            7.51710885484484        1.02606563948766       -1.58365157078899
H           -1.99627021181262        8.36948676310174       -4.02804981888261
H            1.45743023924497        3.01156822590507        7.22343820023508
H            8.25840679522199       -0.07041294373287       -3.62095745616657
C           -4.39390562419365        6.68319059168146        1.56134480741843
C            0.44909184362411       -3.34654313623387        6.69632954529976
C           -7.89777938759128       -4.41869639782035       -2.09178917573288
C           -2.99094270223144       -0.98916355825797        2.86457415462832
C           -3.03117525938144        0.40279880960054        2.82841221156062
C           -3.86290941552483        1.06286646571665        1.93018714780501
C           -4.66482392986699        0.32168131846445        1.06574292166887
C           -4.63766603039445       -1.06847239064588        1.09531698760789
C           -3.79336614133130       -1.71792825065030        1.99235574325079
C           -2.12323603753197       -1.67192298325019        3.83384969200035
C           -2.55166281200516       -2.79735656905743        4.53728991898462
C           -1.70816639539993       -3.36965846121726        5.47167452071996
C           -0.44869841789941       -2.80243464349169        5.68663622004517
N           -0.02730992139127       -1.74562126211990        4.99272909221648
C           -0.82982101733885       -1.20598964030818        4.10467878577400
C           -3.92458544253541        2.53086234030185        1.89817486409496
C           -3.98902539450483        3.28998517491373        3.06593799716664
C           -4.12375828879663        4.66238756380310        2.96746725547562
C           -4.17200529433204        5.25121084646328        1.70004424595879
N           -4.06180798598573        4.53078652640387        0.58526308924612
C           -3.94856072581647        3.22557432219926        0.68261497353824
C           -5.50953187638927       -1.85785628686322        0.21412944221590
C           -5.03417199349319       -2.99805968959634       -0.44524589252205
C           -6.85018277243081       -1.52552756107464        0.02291231518543
C           -7.64196607184913       -2.35008807465430       -0.75448869743830
C           -7.07214127707493       -3.48560094230656       -1.33883424230691
N           -5.78069695772561       -3.77742659376358       -1.19442212932197
H           -3.54025124445289       -3.20146913878772        4.37662202764863
H           -2.02263705654876       -4.23339797176743        6.03769126618610
H           -0.41927958468353       -0.36341208356459        3.56690820823144
H           -3.97239490270849        2.81114230806060        4.03391108811545
H           -4.19894213848484        5.27102116099536        3.85585277738942
H           -3.86592825249520        2.69926111329148       -0.25719947500256
H           -3.99710139981685       -3.29037239462549       -0.36746991544703
H           -7.27454716766441       -0.65695493951190        0.50476011310718
H           -8.68807593014229       -2.12728935471542       -0.90027863889428
H           -4.72412747510499        7.20370608818002        2.47217292199548
H           -8.98413881073277       -4.28229920122261       -1.98818067382582
C            5.43451992884663       -1.63811776398523        4.64778665018909
C            4.09887603940430       -3.40542581735253       -7.35766107723172
C           -4.24939745238598       -7.79501631775700        0.34100849607428
C            2.07874460574929       -4.00936793465243       -2.10235691377483
C            2.85509933394434       -3.47891258033102       -1.07457525081884
C            2.46246808966173       -3.61557415754565        0.25283272377819
C            1.28029290341257       -4.28916553803842        0.55095943099757
C            0.49447719491438       -4.82034292606504       -0.46595595139294
C            0.89620133136038       -4.67295512086546       -1.79113925446406
C            2.53062847592335       -3.88877447685934       -3.49497011924774
C            2.42074443221462       -4.94760807087116       -4.39611193138438
C            2.91675274785707       -4.79602104024628       -5.67789070737424
C            3.51794318902171       -3.58532600208800       -6.03431563547487
N            3.59332144345213       -2.56211094267860       -5.18388209069028
C            3.11782685973444       -2.70804759160233       -3.96878856125633
C            3.29072835035941       -3.07753428612082        1.34020652986823
C            4.68028484922753       -3.19436241233159        1.33405141847160
C            5.40192049584857       -2.70760835203197        2.40863710066544
C            4.71675841807000       -2.11676432506573        3.47420087745550
N            3.39117580783563       -1.98032438788021        3.46758750958345
C            2.70958254826951       -2.43846619512705        2.44329852231890
C           -0.73650199457770       -5.56143044858397       -0.15745814329607
C           -1.90566869446449       -5.36766768838169       -0.90322775557452
C           -0.78424584836474       -6.50852564346831        0.86478678099827
C           -1.94554815553747       -7.23435784979772        1.05364507156979
C           -3.04371802911358       -6.98761345583491        0.22373833324618
N           -3.01478175111770       -6.04760047287979       -0.71932393225297
H            1.98135811256816       -5.88557260632219       -4.09019682050637
H            2.85485826610126       -5.60558203948675       -6.38923720935475
H            5.18636643555482       -3.68273899518053        0.51431004112997
H            6.47746389767010       -2.79703589200089        2.43217901548685
H            1.64208584518641       -2.27874189135754        2.49360867042994
H           -1.94671304000968       -4.62140400442287       -1.68338407253558
H            0.08493544242878       -6.70040499560375        1.47663210316728
H           -2.00081438417181       -7.98949045856028        1.82310128101548
H            6.53026269591238       -1.72621081917890        4.62069651533270
H           -4.15296346923928       -8.70595711794345        0.94971703084560
H            3.69069339119824        3.10782206382296       -8.47018191094445
H           -4.52394372370778       -0.96398519727767       -4.23684115585989
H           -1.99643996410238        2.37240800592730       -5.09103011774385
H           -0.70660072033808       -1.58802108659393       -6.05113944039047
H            0.26683159698090        4.24978740877336        0.79156927486950
H            2.38157960290654        3.40918968036300       -2.82258742487261
H            3.64687299335657        1.63537670163148        0.85353165552654
H           -2.41906738560649        0.97248489511320        3.51028027756690
H           -5.32060879391277        0.83274477050867        0.37796637544634
H           -3.77410858277928       -2.79637437897647        2.01774953993798
H            3.77533345016411       -2.96784855416821       -1.31166995432625
H            0.97927054437715       -4.40873413409374        1.58009463116877
H            0.28945633432779       -5.09103929040379       -2.57927299294975
H           -4.06553354006918       -7.41605904378915       -6.10082988575843
H            4.02094942058087       -4.26088185563389       -8.04430876395385
H            3.19461833135653       -1.83421600545763       -3.33786927143050
H            0.08569686834595       -4.22494465578145        7.24932848968478
