260
 energy: -394.559841186973 gnorm: 0.000071063015 xtb: 6.6.0 (83090be673e2468c27fcd74d519548d8d51bd8df)
N            5.68854011476645        8.13077229858932        7.28335045429388
C            6.34863235827959        7.10381022830566        8.13054836612256
C            5.38164654105066        5.98876684320323        8.55718644764536
C            6.63243244627917        8.81203918067207        6.36258200759072
C            7.11568067692254        7.90273890598996        5.23134156381326
C            4.97048504267116        9.13402273163462        8.11945759989213
C            3.69708167068257        9.59878669257136        7.39652265898032
N            5.38376009029701        4.96959467823799        7.55469813964281
N            5.99406352426511        7.29600883483521        4.58172169361506
N            3.08433342539864        8.38348957336881        6.97625602081540
H            6.78032092563127        7.59977630504466        9.00190439333043
H            7.15187207988829        6.64107511188724        7.55828379140586
H            5.66551281623978        5.61034923346929        9.55322058401764
H            4.35929425625349        6.37549820768546        8.60407884707307
H            7.48564596942916        9.18040824242695        6.93675928447260
H            6.10871465426107        9.66019010098075        5.91966532525669
H            7.75215124677030        8.49189508736927        4.55202943732690
H            7.73339445191959        7.09003305646753        5.62785129721410
H            5.63609704868069        9.96737491907512        8.34782777924315
H            4.67104091853690        8.65632493016454        9.05318083599219
H            3.08195409417779       10.22223360363452        8.05963140074240
H            3.94471652386149       10.18807532859369        6.50838384526457
C            5.59236176258659        3.76490980491159        7.84804936889096
C            7.56563026853756       -7.46042105828667        3.58066719746900
C            7.61250101828709        2.46214759762017       -3.87477089269349
C            6.70122986220445       -1.98147133739542        2.51200133082916
C            6.38601476774313       -1.21810812796345        3.63421794021422
C            6.25032310972773        0.16168348820443        3.53961156670671
C            6.43046051594486        0.78102713491242        2.30554234250526
C            6.75206590613859        0.03606997019249        1.17493104515250
C            6.87963078876213       -1.34556751689547        1.28696258070438
C            6.89612187817274       -3.42773425713529        2.65532299005585
C            7.86028036677309       -4.11655849720920        1.91769450616241
C            8.07184466299353       -5.46364552275478        2.15266231463178
C            7.32718524466303       -6.08540243848445        3.15439764984533
N            6.38656884040828       -5.43545255514211        3.84008995341054
C            6.15805418426805       -4.17048159047564        3.58995480196036
C            5.99002129673653        0.97980630148610        4.72934566222683
C            6.61151016944430        0.71556829718114        5.94973414091176
C            6.43572801016338        1.58805396528188        7.00736206710267
C            5.66070821501840        2.73371541297362        6.81237149284993
N            5.00336358453566        2.94348599663517        5.67426751505514
C            5.15001994697317        2.09734606483594        4.68191007969255
C            6.99520601983673        0.69884194858602       -0.11231685777475
C            6.58224099236639        0.13236726373826       -1.32584968239311
C            7.66326365913336        1.92155070214853       -0.18636948832720
C            7.87651373515520        2.50338244418007       -1.42104013902908
C            7.42711579586526        1.84165294178130       -2.56907546538404
N            6.79347363214543        0.67363389577222       -2.50091327420145
H            8.46554564072625       -3.59702638760996        1.18896953408018
H            8.81561773472466       -6.01315390935381        1.59514574307008
H            5.35548409319059       -3.72787033703529        4.16578120713602
H            7.25475431472001       -0.14579218164887        6.05617983028591
H            6.92356617255329        1.41142826848494        7.95422413598151
H            4.56729912962476        2.31513766981321        3.79679901860849
H            6.03494530032359       -0.80089320255732       -1.34019486692533
H            8.02732324357570        2.40025058626834        0.71137653253608
H            8.39156404667981        3.44946422740193       -1.49972067755494
H            5.79149813691864        3.41960116125511        8.87646309645763
N            5.17513026949450       -8.24000098130140        6.52301719194070
C            5.08973542164129       -7.09772648015635        7.46799369863477
C            5.97445685133229       -5.91434597985371        7.03639556565956
C            4.08938077050820       -9.23341722933253        6.70843602761291
C            2.72441489949779       -8.66802685990913        6.30321621117677
C            6.50505635248360       -8.91082576886721        6.55063085102548
C            6.94800991521982       -9.19648785761714        5.10756964109109
N            5.14512409789848       -4.77351201612126        6.81949094870635
N            2.87965710896756       -7.90374787696710        5.10077106345290
N            6.79298289247872       -7.93879272300903        4.45237572263811
H            5.34736686126567       -7.45216633899912        8.46740678879324
H            4.06240955754415       -6.73531075403646        7.46276035581759
H            6.78801056526495       -5.72645086385692        7.75443052252518
H            6.40158834410197       -6.12743266394811        6.04621953151891
H            4.07227092496010       -9.56034825786612        7.75001469207206
H            4.31549667403012      -10.08947147875705        6.07066320130936
H            2.00113362253268       -9.49104582971766        6.21191552710338
H            2.34511126841140       -7.99444868796567        7.07925500378283
H            6.45230568442349       -9.82155010022923        7.14765155903172
H            7.22994532381095       -8.23521685313935        7.00448394133533
H            6.27921372129867       -9.92408817846832        4.63663719034867
H            7.96695274292703       -9.60331040528210        5.08210713294236
N            7.02370605244687        0.43207018218313       -7.37980288021978
C            7.85752947371629        1.65761383773387       -7.30250693159079
C            7.40668658425615        2.60928347296965       -6.19305604479427
C            7.71897680420210       -0.61345787174128       -8.18260513158731
C            8.61569477674492       -1.46105988387454       -7.26796124756307
C            5.66104822068839        0.69543341275724       -7.91096719848226
C            4.62790552559604       -0.31809036915887       -7.39692817369086
N            7.30174443084410        1.89641601284405       -4.95675476685676
N            7.76639099459008       -1.79600190058246       -6.17437976517534
N            4.11515999528741        0.13974470966656       -6.14336447264487
H            7.83014694751208        2.16752946428746       -8.26817527651954
H            8.88225290867528        1.34854158869109       -7.09221835879680
H            8.10375935460014        3.46137419161359       -6.15236685186209
H            6.41347555297195        3.01465038642986       -6.41317782775546
H            8.28602139812961       -0.14340944224188       -8.98725698700349
H            6.96745379155629       -1.27218067923507       -8.61970031309965
H            9.02503903022319       -2.32069046289842       -7.81618276809636
H            9.45410936888755       -0.87060959013933       -6.88584294432162
H            5.70699862154676        0.68458636867883       -9.00159735411876
H            5.34242282183183        1.68495908568812       -7.58489922102097
H            5.10970505734377       -1.28098345701729       -7.20277004622799
H            3.84002895734366       -0.46153702798200       -8.15502377778771
N           -7.39516221434816        0.73340919703097        0.49114255665574
C           -6.74629756448722        0.22286460673239       -0.74294483382891
C           -5.65093656192857        1.17136169002104       -1.26256797246664
C           -8.17794552407504       -0.30193157572933        1.20885411195646
C           -7.27220176269874       -1.36835301624347        1.83226794415403
C           -8.23117592835420        1.94112458305180        0.24246713701163
C           -7.96910446083945        2.96467458391173        1.35774115635682
N           -4.40011689615358        0.48538053492501       -1.23948195863435
N           -6.13325773182165       -0.72262392988447        2.41538014207022
N           -6.54657083397656        3.06730195431003        1.39449189413892
H           -7.51766033563196        0.04516558031006       -1.49413458887484
H           -6.25259946402204       -0.71697843063890       -0.49795402733368
H           -5.90021506244968        1.58259451437691       -2.25328966376178
H           -5.51864781135849        1.99487235892330       -0.54706024198343
H           -8.88880015531988       -0.76101899152700        0.51893755221830
H           -8.72874835096639        0.19737943078257        2.00757277705375
H           -7.85317733333038       -1.96752970749396        2.54801221859547
H           -6.90654130742141       -2.05622955968108        1.06234606029143
H           -9.28358702896787        1.66233775324144        0.18552454398257
H           -7.93412754737776        2.38459533915255       -0.70781924033272
H           -8.31936041624498        2.58087625986832        2.32132696910386
H           -8.49132810511924        3.90862634869430        1.15605757693228
C            6.02108579592163        7.09401897308647        3.33835173985698
C           -5.88795534266469        4.12426132458765        1.58082352060320
C            2.87751269661648        0.23508988853907       -5.94216244254959
C           -0.37823305604198        3.63830499551093        0.42743781566132
C            0.65471177095170        4.30429304132368        1.08052138613788
C            1.96706315348992        4.20499878006451        0.62716452711655
C            2.24178638130835        3.41523074804108       -0.48502516087479
C            1.22117667283482        2.73976614485791       -1.14979011952003
C           -0.08425818536549        2.85545489143559       -0.68712805186629
C           -1.77296426790507        3.79427771874711        0.85303086698051
C           -2.25246207498222        5.00073079445793        1.36597450417275
C           -3.59595517276751        5.13254187825967        1.66927464289135
C           -4.43975276617141        4.05095605170669        1.41912289947434
N           -3.97929337334268        2.89003412130304        0.95270335199200
C           -2.70124514555965        2.75240834502851        0.70207151367402
C            3.03704476806506        4.96017194547471        1.29083745663716
C            4.05683640504839        5.57071135712854        0.56001841620086
C            5.03696642558687        6.27999440767999        1.22681229886266
C            4.97193243016105        6.38019738898209        2.62106869882449
N            3.99842313528963        5.80146367600621        3.31949562261144
C            3.07834143707020        5.11830675608302        2.68270547465242
C            1.53116393674143        1.97815842663608       -2.36483204720327
C            2.70729748794254        1.22910450213595       -2.48004058976254
C            0.69851793301114        2.00943831783603       -3.48342312435969
C            1.09805320096544        1.38267361681222       -4.64896689489869
C            2.34750183765837        0.75869017730292       -4.68338443073512
N            3.10375809747274        0.65793987042850       -3.59280471205915
H           -1.58781576091785        5.84273987777266        1.49536152268482
H           -3.98676239957586        6.05858962362989        2.06375342365220
H           -2.40604367120062        1.76887149595456        0.35990553182095
H            4.07058129152225        5.50447087293494       -0.51844108640053
H            5.83515432066555        6.75926964045812        0.67927744094516
H            2.33453950400974        4.64876059361416        3.31278036906844
H            3.35770238125903        1.08408401210633       -1.62774856624949
H           -0.23621650547126        2.54988493525483       -3.44997597962300
H            0.47582609554192        1.41145791491514       -5.53089794267488
H            6.86313483381521        7.42301757445068        2.70793963366993
H           -6.32885350289540        5.10133487819874        1.81328500475061
H            2.12204485976836       -0.01401741666026       -6.70625645291432
C            1.86002214242790        8.10416924567324        7.06509163342196
C           -5.54388954294045       -1.23548329416016        3.40516764174602
C            5.45447909895323       -3.62136246870199        7.21573921199267
C           -0.60600291981842        0.79569986454182        5.29399931181096
C           -0.42410697625597        2.16340709611105        5.47391282704039
C            0.78330416211814        2.66712474813066        5.95214583511964
C            1.82005218494586        1.77954494652457        6.23721995522535
C            1.66687350866696        0.41426037513423        6.03049986927523
C            0.44895146007465       -0.07122357481280        5.56192590696033
C           -1.90196502841538        0.26334185221933        4.85472966601851
C           -2.42527418792451       -0.90305960646942        5.41336990909822
C           -3.63795364629656       -1.38606088775541        4.96205464625464
C           -4.30884665916797       -0.68958955078833        3.95173601617113
N           -3.82535110990341        0.43891882508240        3.43588496032740
C           -2.67376326981728        0.89258904308284        3.86962560582008
C            0.97331853261524        4.10335168559950        6.18253469957472
C           -0.08546432796609        4.94466316452849        6.52974141763173
C            0.15339341940711        6.28477486043615        6.78048353623697
C            1.46824670524866        6.74402469009770        6.71376345676301
N            2.47918321300450        5.94574424840433        6.37388048848970
C            2.24827288943102        4.68926269668060        6.09393705625848
C            2.75240842681926       -0.52684563086362        6.33152934063670
C            3.00762843239081       -1.62168710880125        5.49862191388609
C            3.55216527768244       -0.40406681637970        7.46699502318091
C            4.48887201185658       -1.38184150268972        7.74900804876340
C            4.58494784187269       -2.48578611113655        6.89996591310738
N            3.87516551061218       -2.56666355410132        5.77535295303795
H           -1.89399123673942       -1.41548406152327        6.20254407422725
H           -4.05978934548379       -2.28814543166482        5.37977307252170
H           -2.32410185494640        1.79729302588585        3.39033474435445
H           -1.08750990057965        4.55365727632993        6.63317840349483
H           -0.65376100994773        6.95063404710499        7.04850355113844
H            3.12659321444651        4.13286168830208        5.79343010102645
H            2.48258444977594       -1.73257113481035        4.55911052463782
H            3.41781630440717        0.43189120980381        8.13817925348176
H            5.10607920495472       -1.31685445294581        8.63251805913369
H            1.08492414961823        8.79522022111661        7.41954882125143
H            6.34980052832414       -3.39867104171473        7.81875512237189
C           -3.56827223221364        0.55406960548902       -2.17944577232091
C            7.67989556716111       -2.92752631107108       -5.62950689299221
C            1.92449780015327       -7.79038662656301        4.28535169082164
C            3.37739880554073       -3.27735980160561       -1.97817475764992
C            2.29175859143717       -2.44378094654534       -2.24337141950057
C            1.16468961006214       -2.45993672648236       -1.43076990368633
C            1.11352246460559       -3.34424598602073       -0.35622952749623
C            2.17832612349952       -4.19823215272279       -0.08653872398347
C            3.31251430806548       -4.14536260358995       -0.89074052190104
C            4.55173656120155       -3.24313308760297       -2.85669248878519
C            5.34339562517413       -4.37155588634153       -3.07861657808318
C            6.41621503322807       -4.29937196789016       -3.95012005927126
C            6.64835387601162       -3.09425613691567       -4.61219869309092
N            5.89931850848061       -2.01415666168690       -4.39714913769935
C            4.91117315188382       -2.06970964295460       -3.54218406188737
C            0.01690328821806       -1.58701659013647       -1.70454653212493
C           -0.44185385664166       -1.34023578376670       -2.99789294584637
C           -1.58923438036566       -0.59019840271479       -3.18214815495332
C           -2.27694937270933       -0.12574730230762       -2.05951940989086
N           -1.79970085629769       -0.29726139098933       -0.82733235826171
C           -0.69496122789236       -0.98537365942041       -0.66067643134775
C            2.08803803301559       -5.16146704793751        1.01802719423590
C            3.17288625699916       -5.43628683445696        1.86044976847195
C            0.90452859404882       -5.85563502288998        1.27028934868323
C            0.85125861428834       -6.74347823580721        2.32706720121182
C            1.99054065653126       -6.92071680562560        3.11846825897266
N            3.12887411185802       -6.27753872900397        2.86557497651117
H            5.10888691721727       -5.31057134184169       -2.59801257395349
H            7.03977328557197       -5.16213176109181       -4.13327669639000
H            0.07673657518921       -1.75925503426244       -3.84801048952042
H           -1.97190947860482       -0.40170933325059       -4.17400097480772
H           -0.34625725741975       -1.06449658686885        0.36045833668073
H            4.11780629886914       -4.92677096151094        1.72638614541907
H            0.04212770553742       -5.71149758521653        0.63534220912015
H           -0.05538288493710       -7.29035598035565        2.53961196933951
H           -3.75237469767134        1.08967152196892       -3.12499778083439
H            0.96155521462913       -8.30306591830995        4.42752802107071
H            8.02290581438300        3.48447959587085       -3.84242891994864
H            6.25148736037732       -1.70364701320452        4.58785522509642
H            6.33532662069373        1.85350225757881        2.23259888013635
H            7.13625727663538       -1.92347816307701        0.41261671307760
H            0.44003471427885        4.92244956142500        1.93830747288664
H            3.25403425102825        3.33726438238307       -0.85076012816179
H           -0.88066240825018        2.33994887269234       -1.20025778181445
H           -1.23988845321976        2.83372437325508        5.25157551875047
H            2.75519734793221        2.15800449352077        6.61663827466842
H            0.31957380277434       -1.13289410877297        5.41636814814647
H            2.32960616711778       -1.77438528005464       -3.08745328351170
H            0.23319237984912       -3.37416328737712        0.26754286502438
H            4.14111357525998       -4.80071270570536       -0.67090938960000
H            8.42859886110380       -7.98689316340432        3.15498164504806
H            8.29874692435311       -3.79540362170886       -5.89041295561487
H            4.38583871012776       -1.13275335590481       -3.41021349525399
H           -5.89743506651418       -2.15709733453064        3.89096832908850
H            4.95880140185637        7.64883281406324        6.69696996636038
H            5.05676453625509       -7.82334582693499        5.56703931874813
H           -6.60965997251923        1.02513599453431        1.12390437338574
H            6.92426365641856        0.04854542129034       -6.40450185664115
