
                                 *****************
                                 * O   R   C   A *
                                 *****************

                                            #,                                       
                                            ###                                      
                                            ####                                     
                                            #####                                    
                                            ######                                   
                                           ########,                                 
                                     ,,################,,,,,                         
                               ,,#################################,,                 
                          ,,##########################################,,             
                       ,#########################################, ''#####,          
                    ,#############################################,,   '####,        
                  ,##################################################,,,,####,       
                ,###########''''           ''''###############################       
              ,#####''   ,,,,##########,,,,          '''####'''          '####       
            ,##' ,,,,###########################,,,                        '##       
           ' ,,###''''                  '''############,,,                           
         ,,##''                                '''############,,,,        ,,,,,,###''
      ,#''                                            '''#######################'''  
     '                                                          ''''####''''         
             ,#######,   #######,   ,#######,      ##                                
            ,#'     '#,  ##    ##  ,#'     '#,    #''#        ######   ,####,        
            ##       ##  ##   ,#'  ##            #'  '#       #        #'  '#        
            ##       ##  #######   ##           ,######,      #####,   #    #        
            '#,     ,#'  ##    ##  '#,     ,#' ,#      #,         ##   #,  ,#        
             '#######'   ##     ##  '#######'  #'      '#     #####' # '####'        



                  #######################################################
                  #                        -***-                        #
                  #          Department of theory and spectroscopy      #
                  #    Directorship and core code : Frank Neese         #
                  #        Max Planck Institute fuer Kohlenforschung    #
                  #                Kaiser Wilhelm Platz 1               #
                  #                 D-45470 Muelheim/Ruhr               #
                  #                      Germany                        #
                  #                                                     #
                  #                  All rights reserved                #
                  #                        -***-                        #
                  #######################################################


                         Program Version 5.0.4 -  RELEASE  -


 With contributions from (in alphabetic order):
   Daniel Aravena         : Magnetic Suceptibility
   Michael Atanasov       : Ab Initio Ligand Field Theory (pilot matlab implementation)
   Alexander A. Auer      : GIAO ZORA, VPT2 properties, NMR spectrum
   Ute Becker             : Parallelization
   Giovanni Bistoni       : ED, misc. LED, open-shell LED, HFLD
   Martin Brehm           : Molecular dynamics
   Dmytro Bykov           : SCF Hessian
   Vijay G. Chilkuri      : MRCI spin determinant printing, contributions to CSF-ICE
   Dipayan Datta          : RHF DLPNO-CCSD density
   Achintya Kumar Dutta   : EOM-CC, STEOM-CC
   Dmitry Ganyushin       : Spin-Orbit,Spin-Spin,Magnetic field MRCI
   Miquel Garcia          : C-PCM and meta-GGA Hessian, CC/C-PCM, Gaussian charge scheme
   Yang Guo               : DLPNO-NEVPT2, F12-NEVPT2, CIM, IAO-localization
   Andreas Hansen         : Spin unrestricted coupled pair/coupled cluster methods
   Benjamin Helmich-Paris : MC-RPA, TRAH-SCF, COSX integrals
   Lee Huntington         : MR-EOM, pCC
   Robert Izsak           : Overlap fitted RIJCOSX, COSX-SCS-MP3, EOM
   Marcus Kettner         : VPT2
   Christian Kollmar      : KDIIS, OOCD, Brueckner-CCSD(T), CCSD density, CASPT2, CASPT2-K
   Simone Kossmann        : Meta GGA functionals, TD-DFT gradient, OOMP2, MP2 Hessian
   Martin Krupicka        : Initial AUTO-CI
   Lucas Lang             : DCDCAS
   Marvin Lechner         : AUTO-CI (C++ implementation), FIC-MRCC
   Dagmar Lenk            : GEPOL surface, SMD
   Dimitrios Liakos       : Extrapolation schemes; Compound Job, initial MDCI parallelization
   Dimitrios Manganas     : Further ROCIS development; embedding schemes
   Dimitrios Pantazis     : SARC Basis sets
   Anastasios Papadopoulos: AUTO-CI, single reference methods and gradients
   Taras Petrenko         : DFT Hessian,TD-DFT gradient, ASA, ECA, R-Raman, ABS, FL, XAS/XES, NRVS
   Peter Pinski           : DLPNO-MP2, DLPNO-MP2 Gradient
   Christoph Reimann      : Effective Core Potentials
   Marius Retegan         : Local ZFS, SOC
   Christoph Riplinger    : Optimizer, TS searches, QM/MM, DLPNO-CCSD(T), (RO)-DLPNO pert. Triples
   Tobias Risthaus        : Range-separated hybrids, TD-DFT gradient, RPA, STAB
   Michael Roemelt        : Original ROCIS implementation
   Masaaki Saitow         : Open-shell DLPNO-CCSD energy and density
   Barbara Sandhoefer     : DKH picture change effects
   Avijit Sen             : IP-ROCIS
   Kantharuban Sivalingam : CASSCF convergence, NEVPT2, FIC-MRCI
   Bernardo de Souza      : ESD, SOC TD-DFT
   Georgi Stoychev        : AutoAux, RI-MP2 NMR, DLPNO-MP2 response
   Willem Van den Heuvel  : Paramagnetic NMR
   Boris Wezisla          : Elementary symmetry handling
   Frank Wennmohs         : Technical directorship


 We gratefully acknowledge several colleagues who have allowed us to
 interface, adapt or use parts of their codes:
   Stefan Grimme, W. Hujo, H. Kruse, P. Pracht,  : VdW corrections, initial TS optimization,
                  C. Bannwarth, S. Ehlert          DFT functionals, gCP, sTDA/sTD-DF
   Ed Valeev, F. Pavosevic, A. Kumar             : LibInt (2-el integral package), F12 methods
   Garnet Chan, S. Sharma, J. Yang, R. Olivares  : DMRG
   Ulf Ekstrom                                   : XCFun DFT Library
   Mihaly Kallay                                 : mrcc  (arbitrary order and MRCC methods)
   Jiri Pittner, Ondrej Demel                    : Mk-CCSD
   Frank Weinhold                                : gennbo (NPA and NBO analysis)
   Christopher J. Cramer and Donald G. Truhlar   : smd solvation model
   Lars Goerigk                                  : TD-DFT with DH, B97 family of functionals
   V. Asgeirsson, H. Jonsson                     : NEB implementation
   FAccTs GmbH                                   : IRC, NEB, NEB-TS, DLPNO-Multilevel, CI-OPT
                                                   MM, QMMM, 2- and 3-layer-ONIOM, Crystal-QMMM,
                                                   LR-CPCM, SF, NACMEs, symmetry and pop. for TD-DFT,
                                                   nearIR, NL-DFT gradient (VV10), updates on ESD,
                                                   ML-optimized integration grids
   S Lehtola, MJT Oliveira, MAL Marques          : LibXC Library
   Liviu Ungur et al                             : ANISO software


 Your calculation uses the libint2 library for the computation of 2-el integrals
 For citations please refer to: http://libint.valeyev.net

 Your ORCA version has been built with support for libXC version: 5.1.0
 For citations please refer to: https://tddft.org/programs/libxc/

 This ORCA versions uses:
   CBLAS   interface :  Fast vector & matrix operations
   LAPACKE interface :  Fast linear algebra routines
   SCALAPACK package :  Parallel linear algebra routines
   Shared memory     :  Shared parallel matrices
   BLAS/LAPACK       :  OpenBLAS 0.3.15  USE64BITINT DYNAMIC_ARCH NO_AFFINITY SkylakeX SINGLE_THREADED
        Core in use  :  SkylakeX
   Copyright (c) 2011-2014, The OpenBLAS Project




***************************************
The coordinates will be read from file: xtbopt.xyz
***************************************


Your calculation utilizes the geometrical counterpoise correction gCP
Please cite in your paper:
H.Kruse, S. Grimme J.Chem.Phys., 136, (2012), 154101 
   

Your calculation utilizes the atom-pairwise dispersion correction
based on tight binding partial charges (D4)
Cite in your paper:
E.Caldeweyher, C.Bannwarth, S.Grimme, J.Chem.Phys., (2017), 147, 034112.
E.Caldeweyher, S.Ehlert, A.Hansen, H.Neugebauer, S.Grimme, J.Chem.Phys., (2018), in progress.
   

Your calculation utilizes the SMD solvation module
Please cite in your paper:
A.V. Marenich, C.J. Cramer, D.G. Truhlar J. Phys. Chem. B, 113, (2009), 6378 

================================================================================

----- Orbital basis set information -----
Your calculation utilizes the basis: def2-mTZVPP
   Stefan Grimme, Andreas Hansen, Sebastian Ehlert, and Jan-Michael Mewes 
   J. Chem. Phys. 154, 000000 (2021). DOI: 10.1063/5.0040021

----- AuxJ basis set information -----
Your calculation utilizes the auxiliary basis: def2/J
   F. Weigend, Phys. Chem. Chem. Phys. 8, 1057 (2006).

================================================================================
                                        WARNINGS
                       Please study these warnings very carefully!
================================================================================

Using LibXC functional ID 497 : Re-regularized SCAN exchange by Furness et al
[ 1]  J. W. Furness, A. D. Kaplan, J. Ning, J. P. Perdew, and J. Sun, J. Phys. Chem. Lett. 11, 8208 (2020)
[ 2]  J. W. Furness, A. D. Kaplan, J. Ning, J. P. Perdew, and J. Sun, J. Phys. Chem. Lett. 11, 9248 (2020)
Using LibXC functional ID 498 : Re-regularized SCAN correlation by Furness et al
[ 1]  J. W. Furness, A. D. Kaplan, J. Ning, J. P. Perdew, and J. Sun, J. Phys. Chem. Lett. 11, 8208 (2020)
[ 2]  J. W. Furness, A. D. Kaplan, J. Ning, J. P. Perdew, and J. Sun, J. Phys. Chem. Lett. 11, 9248 (2020)
Using LibXC functional ID 497 : Re-regularized SCAN exchange by Furness et al
[ 1]  J. W. Furness, A. D. Kaplan, J. Ning, J. P. Perdew, and J. Sun, J. Phys. Chem. Lett. 11, 8208 (2020)
[ 2]  J. W. Furness, A. D. Kaplan, J. Ning, J. P. Perdew, and J. Sun, J. Phys. Chem. Lett. 11, 9248 (2020)
Using LibXC functional ID 498 : Re-regularized SCAN correlation by Furness et al
[ 1]  J. W. Furness, A. D. Kaplan, J. Ning, J. P. Perdew, and J. Sun, J. Phys. Chem. Lett. 11, 8208 (2020)
[ 2]  J. W. Furness, A. D. Kaplan, J. Ning, J. P. Perdew, and J. Sun, J. Phys. Chem. Lett. 11, 9248 (2020)

INFO   : the flag for use of the SHARK integral package has been found!

================================================================================
                                       INPUT FILE
================================================================================
NAME = ORCA.in
|  1> ! r2SCAN-3c ENERGY TightSCF defgrid3 def2/J
|  2> %maxcore 15000
|  3> %PAL NPROCS 10 END
|  4> %CPCM SMD TRUE
|  5>       SMDSOLVENT "MeCN"
|  6> END
|  7> *xyzfile 8 1  xtbopt.xyz
|  8> 
|  9>                          ****END OF INPUT****
================================================================================

                       ****************************
                       * Single Point Calculation *
                       ****************************

---------------------------------
CARTESIAN COORDINATES (ANGSTROEM)
---------------------------------
  N      6.213847    7.680505    7.984069
  C      6.866398    6.737225    8.933373
  C      6.056830    5.447634    9.082691
  C      7.202701    8.557761    7.299411
  C      7.864085    7.843234    6.119468
  C      5.128576    8.465031    8.634938
  C      4.045427    8.860925    7.629460
  N      5.947900    4.805093    7.803772
  N      6.860678    7.470174    5.163468
  N      3.480831    7.676221    7.048349
  Na     4.759556    5.770421    5.513149
  H      6.989922    7.227560    9.901171
  H      7.854766    6.480560    8.548448
  H      6.540539    4.814515    9.840738
  H      5.040907    5.668214    9.425392
  H      7.955147    8.882613    8.020965
  H      6.684104    9.440053    6.920404
  H      8.634564    8.504175    5.696253
  H      8.354396    6.922920    6.452031
  H      5.557369    9.351888    9.106147
  H      4.670025    7.850010    9.411056
  H      3.299404    9.484107    8.143697
  H      4.474186    9.451440    6.813706
  C      6.165725    3.564878    7.707420
  C      3.910569   -6.384533    1.016127
  C      8.618556    3.555218   -4.279198
  C      5.611271   -0.990946    1.285516
  C      5.577627   -0.382896    2.537793
  C      6.025159    0.924555    2.700144
  C      6.502311    1.628347    1.597373
  C      6.540578    1.030189    0.341731
  C      6.089781   -0.278584    0.190446
  C      5.177782   -2.387981    1.138083
  C      5.915750   -3.305215    0.390482
  C      5.489919   -4.619201    0.331046
  C      4.334000   -4.992203    1.022616
  N      3.608828   -4.108154    1.710457
  C      4.017615   -2.858356    1.763330
  C      6.030710    1.552480    4.029578
  C      6.470181    0.862445    5.158971
  C      6.498026    1.517105    6.376217
  C      6.087561    2.851609    6.441365
  N      5.639184    3.503670    5.366924
  C      5.614091    2.876122    4.210307
  C      7.086437    1.752430   -0.816341
  C      6.459734    1.698682   -2.066306
  C      8.262030    2.496658   -0.723363
  C      8.759666    3.108442   -1.858814
  C      8.072564    2.962784   -3.067301
  N      6.929870    2.278596   -3.150071
  H      6.823450   -3.004865   -0.111139
  H      6.053237   -5.351193   -0.226834
  H      3.384663   -2.184800    2.324895
  H      6.812991   -0.158516    5.082784
  H      6.849362    1.009624    7.261326
  H      5.232149    3.450311    3.377129
  H      5.526562    1.166122   -2.190247
  H      8.795067    2.570808    0.212668
  H      9.676517    3.675864   -1.816571
  H      6.447962    2.955480    8.573809
  N      1.400342   -7.979377    3.867363
  C      1.665302   -7.941218    5.331916
  C      2.668617   -6.843480    5.691597
  C      0.036060   -8.489509    3.558623
  C     -1.017857   -7.389280    3.700666
  C      2.455557   -8.724522    3.126824
  C      2.609045   -8.199117    1.698037
  N      2.139319   -5.567862    5.300924
  N     -0.705716   -6.314160    2.802494
  N      2.967985   -6.810115    1.740847
  Na     1.520842   -4.716979    2.802888
  H      2.031731   -8.917193    5.657023
  H      0.728221   -7.733826    5.851379
  H      2.885413   -6.905677    6.768049
  H      3.607926   -6.986647    5.148355
  H     -0.193507   -9.328256    4.218977
  H      0.022534   -8.848266    2.528045
  H     -2.009834   -7.827386    3.517721
  H     -1.012167   -6.978899    4.715325
  H      2.209650   -9.788398    3.120876
  H      3.406484   -8.593124    3.645912
  H      1.661167   -8.274512    1.155934
  H      3.350688   -8.818361    1.172911
  N      7.526151    2.329058   -8.050666
  C      8.850969    2.900410   -7.682658
  C      8.715094    3.950598   -6.578420
  C      7.639283    0.928363   -8.542203
  C      7.728660   -0.066458   -7.383424
  C      6.789996    3.200269   -9.007527
  C      5.275524    3.039920   -8.860486
  N      8.121366    3.344383   -5.420786
  N      6.536516    0.018178   -6.588486
  N      4.887237    3.391939   -7.524336
  Na     5.602900    2.160579   -5.199883
  H      9.316869    3.333527   -8.570038
  H      9.489820    2.095209   -7.316003
  H      9.706592    4.381480   -6.377433
  H      8.053230    4.761678   -6.898095
  H      8.515601    0.843817   -9.188237
  H      6.751958    0.691274   -9.131626
  H      7.897354   -1.071820   -7.796159
  H      8.572987    0.177130   -6.730902
  H      7.103601    2.962286  -10.026066
  H      7.047429    4.240609   -8.801347
  H      4.981126    1.998307   -9.021949
  H      4.781653    3.655024   -9.626807
  N     -7.708051    5.358024   -1.338062
  C     -7.853390    5.387684   -2.819516
  C     -6.532912    5.750374   -3.501791
  C     -8.655580    4.402073   -0.701848
  C     -8.129320    2.966991   -0.766938
  C     -7.802992    6.718765   -0.741150
  C     -6.995182    6.816473    0.554430
  N     -5.541939    4.767385   -3.167534
  N     -6.872772    2.889268   -0.077645
  N     -5.616338    6.533054    0.274031
  Na    -4.528826    4.182624   -0.691382
  H     -8.634809    6.100487   -3.090640
  H     -8.156809    4.396868   -3.161992
  H     -6.707189    5.832993   -4.584518
  H     -6.166628    6.717183   -3.142624
  H     -9.627654    4.477026   -1.193564
  H     -8.777179    4.676785    0.347254
  H     -8.891102    2.293866   -0.347390
  H     -7.950558    2.669447   -1.804970
  H     -8.852190    6.960393   -0.559276
  H     -7.400669    7.441926   -1.452723
  H     -7.340361    6.073929    1.280730
  H     -7.148102    7.814411    0.990407
  C      7.047703    7.708702    3.937486
  C     -4.716315    7.289811    0.734527
  C      3.908700    4.169169   -7.341857
  C      0.749851    6.443497   -0.475881
  C      1.776677    6.679660    0.432716
  C      3.104996    6.486198    0.062604
  C      3.401733    6.046930   -1.223829
  C      2.381643    5.809016   -2.141271
  C      1.057652    6.005533   -1.761254
  C     -0.650676    6.683603   -0.098429
  C     -1.031410    7.832377    0.594080
  C     -2.368626    8.026383    0.886471
  C     -3.301017    7.068715    0.477741
  N     -2.934327    5.955967   -0.161149
  C     -1.660112    5.775428   -0.436547
  C      4.180715    6.780256    1.020486
  C      5.317989    7.493250    0.642939
  C      6.273649    7.786242    1.598051
  C      6.072734    7.361929    2.914536
  N      4.999948    6.652337    3.270006
  C      4.093403    6.375217    2.357150
  C      2.711480    5.384034   -3.509642
  C      3.674036    4.397359   -3.750644
  C      2.094665    5.958310   -4.620582
  C      2.476231    5.549941   -5.885157
  C      3.468067    4.573808   -6.015216
  N      4.039387    4.004115   -4.952219
  H     -0.299796    8.575323    0.874519
  H     -2.690247    8.914308    1.408526
  H     -1.419713    4.852225   -0.945935
  H      5.440016    7.838923   -0.372597
  H      7.154810    8.350363    1.333891
  H      3.251158    5.789290    2.699307
  H      4.163557    3.895382   -2.927277
  H      1.350098    6.731009   -4.500344
  H      2.024717    5.990384   -6.760698
  H      7.953655    8.207612    3.574151
  H     -4.952461    8.172260    1.340421
  H      3.343378    4.598264   -8.177240
  C      2.226331    7.557562    6.964112
  C     -6.665552    1.949188    0.739784
  C      2.172957   -4.602240    6.114138
  C     -1.853596    1.633478    3.707455
  C     -1.305474    2.836146    4.146101
  C     -0.143480    2.843864    4.911073
  C      0.474697    1.638465    5.232689
  C     -0.067027    0.430757    4.803497
  C     -1.229530    0.434254    4.036813
  C     -3.101043    1.640427    2.929115
  C     -4.141863    0.756170    3.210076
  C     -5.311323    0.843005    2.477761
  C     -5.418938    1.814349    1.478487
  N     -4.411749    2.640130    1.187727
  C     -3.300324    2.553202    1.887159
  C      0.418446    4.108421    5.407725
  C     -0.389724    5.093903    5.973241
  C      0.200678    6.240614    6.471157
  C      1.589302    6.379958    6.393869
  N      2.359896    5.452325    5.822465
  C      1.793324    4.362188    5.350874
  C      0.562515   -0.843679    5.179061
  C      0.714217   -1.880521    4.251647
  C      1.018625   -1.076558    6.476183
  C      1.566485   -2.308023    6.783964
  C      1.644429   -3.286113    5.788606
  N      1.232385   -3.055299    4.540570
  H     -4.051241    0.032492    4.006172
  H     -6.137112    0.180837    2.687422
  H     -2.515063    3.239889    1.601526
  H     -1.457662    4.954387    6.049764
  H     -0.401379    7.010532    6.928499
  H      2.464376    3.650004    4.890361
  H      0.408465   -1.746539    3.222953
  H      0.921624   -0.318933    7.239347
  H      1.913830   -2.516654    7.784072
  H      1.542888    8.330500    7.334249
  H      2.587960   -4.706570    7.123354
  C     -4.829870    4.262637   -4.080111
  C      5.938480   -1.040543   -6.247214
  C     -1.613310   -5.821280    2.075631
  C      1.101456   -0.882273   -3.308070
  C      0.211841    0.145421   -3.610547
  C     -1.013086    0.233625   -2.956584
  C     -1.345689   -0.712625   -1.990791
  C     -0.464975   -1.744686   -1.682371
  C      0.759583   -1.822190   -2.340740
  C      2.377824   -0.982251   -4.030774
  C      2.848784   -2.201819   -4.515959
  C      4.031206   -2.227217   -5.231931
  C      4.721470   -1.031513   -5.449624
  N      4.288836    0.131016   -4.957333
  C      3.162287    0.150347   -4.277238
  C     -1.965288    1.300960   -3.297077
  C     -2.235257    1.642259   -4.621756
  C     -3.168557    2.628150   -4.883105
  C     -3.814573    3.254770   -3.813771
  N     -3.537728    2.947176   -2.545069
  C     -2.649672    2.006905   -2.301470
  C     -0.828518   -2.768347   -0.691602
  C      0.092164   -3.211024    0.264725
  C     -2.094093   -3.353579   -0.677220
  C     -2.363162   -4.347144    0.245862
  C     -1.359767   -4.738652    1.136650
  N     -0.158767   -4.157138    1.144261
  H      2.286297   -3.110661   -4.363144
  H      4.407547   -3.155981   -5.632054
  H     -1.745319    1.127499   -5.434637
  H     -3.406133    2.899420   -5.900140
  H     -2.457766    1.806254   -1.256166
  H      1.077475   -2.769350    0.324452
  H     -2.846233   -3.058686   -1.393588
  H     -3.329840   -4.826217    0.266526
  H     -4.948357    4.544460   -5.132827
  H     -2.643279   -6.195701    2.096881
  H      9.505433    4.183776   -4.138061
  H      5.219824   -0.936308    3.392316
  H      6.862521    2.638167    1.720712
  H      6.129793   -0.750320   -0.779350
  H      1.542711    7.032522    1.425443
  H      4.430600    5.907227   -1.518089
  H      0.264776    5.833738   -2.472993
  H     -1.794913    3.767586    3.905989
  H      1.370211    1.640009    5.835007
  H     -1.659701   -0.500318    3.710869
  H      0.466794    0.869254   -4.369422
  H     -2.300109   -0.655382   -1.490303
  H      1.441175   -2.626730   -2.111116
  H      4.480325   -7.047081    0.354338
  H      6.295100   -2.032164   -6.549136
  H      2.865544    1.117286   -3.894311
  H     -7.423948    1.187122    0.953666
  H      5.765066    7.101896    7.248087
  H      1.435453   -6.998162    3.530260
  H     -6.751024    5.008951   -1.137227
  H      6.962776    2.298004   -7.179160

----------------------------
CARTESIAN COORDINATES (A.U.)
----------------------------
  NO LB      ZA    FRAG     MASS         X           Y           Z
   0 N     7.0000    0    14.007   11.742469   14.514051   15.087703
   1 C     6.0000    0    12.011   12.975612   12.731509   16.881629
   2 C     6.0000    0    12.011   11.445750   10.294536   17.163798
   3 C     6.0000    0    12.011   13.611132   16.171825   13.793888
   4 C     6.0000    0    12.011   14.860966   14.821564   11.564118
   5 C     6.0000    0    12.011    9.691603   15.996591   16.317668
   6 C     6.0000    0    12.011    7.644750   16.744722   14.417591
   7 N     7.0000    0    14.007   11.239902    9.080309   14.746991
   8 N     7.0000    0    14.007   12.964803   14.116582    9.757540
   9 N     7.0000    0    14.007    6.577818   14.505956   13.319450
  10 Na   11.0000    0    22.990    8.994257   10.904516   10.418342
  11 H     1.0000    0     1.008   13.209039   13.658110   18.710501
  12 H     1.0000    0     1.008   14.843356   12.246483   16.154225
  13 H     1.0000    0     1.008   12.359827    9.098115   18.596300
  14 H     1.0000    0     1.008    9.525934   10.711372   17.811410
  15 H     1.0000    0     1.008   15.033050   16.785706   15.157427
  16 H     1.0000    0     1.008   12.631127   17.839114   13.077669
  17 H     1.0000    0     1.008   16.316962   16.070561   10.764359
  18 H     1.0000    0     1.008   15.787520   13.082423   12.192571
  19 H     1.0000    0     1.008   10.501906   17.672507   17.208124
  20 H     1.0000    0     1.008    8.825068   14.834369   17.784319
  21 H     1.0000    0     1.008    6.234970   17.922366   15.389357
  22 H     1.0000    0     1.008    8.454985   17.860633   12.876038
  23 C     6.0000    0    12.011   11.651532    6.736642   14.564913
  24 C     6.0000    0    12.011    7.389905  -12.065018    1.920202
  25 C     6.0000    0    12.011   16.286710    6.718388   -8.086512
  26 C     6.0000    0    12.011   10.603765   -1.872617    2.429272
  27 C     6.0000    0    12.011   10.540188   -0.723568    4.795735
  28 C     6.0000    0    12.011   11.385900    1.747155    5.102532
  29 C     6.0000    0    12.011   12.287587    3.077130    3.018597
  30 C     6.0000    0    12.011   12.359901    1.946774    0.645778
  31 C     6.0000    0    12.011   11.508018   -0.526448    0.359891
  32 C     6.0000    0    12.011    9.784590   -4.512630    2.150665
  33 C     6.0000    0    12.011   11.179148   -6.245951    0.737903
  34 C     6.0000    0    12.011   10.374443   -8.729024    0.625586
  35 C     6.0000    0    12.011    8.190073   -9.433897    1.932463
  36 N     7.0000    0    14.007    6.819696   -7.763286    3.232296
  37 C     6.0000    0    12.011    7.592192   -5.401510    3.332212
  38 C     6.0000    0    12.011   11.396389    2.933762    7.614798
  39 C     6.0000    0    12.011   12.226869    1.629785    9.749042
  40 C     6.0000    0    12.011   12.279489    2.866914   12.049303
  41 C     6.0000    0    12.011   11.503823    5.388761   12.172416
  42 N     7.0000    0    14.007   10.656514    6.620977   10.142017
  43 C     6.0000    0    12.011   10.609094    5.435084    7.956327
  44 C     6.0000    0    12.011   13.391424    3.311613   -1.542661
  45 C     6.0000    0    12.011   12.207129    3.210043   -3.904752
  46 C     6.0000    0    12.011   15.612973    4.718000   -1.366957
  47 C     6.0000    0    12.011   16.553369    5.874104   -3.512649
  48 C     6.0000    0    12.011   15.254935    5.598851   -5.796359
  49 N     7.0000    0    14.007   13.095556    4.305922   -5.952771
  50 H     1.0000    0     1.008   12.894451   -5.678371   -0.210023
  51 H     1.0000    0     1.008   11.438960  -10.112290   -0.428655
  52 H     1.0000    0     1.008    6.396085   -4.128673    4.393414
  53 H     1.0000    0     1.008   12.874688   -0.299552    9.605070
  54 H     1.0000    0     1.008   12.943418    1.907913   13.721918
  55 H     1.0000    0     1.008    9.887328    6.520143    6.381849
  56 H     1.0000    0     1.008   10.443688    2.203652   -4.138968
  57 H     1.0000    0     1.008   16.620268    4.858122    0.401885
  58 H     1.0000    0     1.008   18.285967    6.946376   -3.432822
  59 H     1.0000    0     1.008   12.184883    5.585048   16.202151
  60 N     7.0000    0    14.007    2.646264  -15.078837    7.308257
  61 C     6.0000    0    12.011    3.146965  -15.006727   10.075862
  62 C     6.0000    0    12.011    5.042955  -12.932303   10.755560
  63 C     6.0000    0    12.011    0.068144  -16.042847    6.724823
  64 C     6.0000    0    12.011   -1.923471  -13.963715    6.993246
  65 C     6.0000    0    12.011    4.640331  -16.486957    5.908840
  66 C     6.0000    0    12.011    4.930380  -15.494086    3.208826
  67 N     7.0000    0    14.007    4.042726  -10.521735   10.017294
  68 N     7.0000    0    14.007   -1.333611  -11.932034    5.295947
  69 N     7.0000    0    14.007    5.608678  -12.869253    3.289724
  70 Na   11.0000    0    22.990    2.873974   -8.913798    5.296692
  71 H     1.0000    0     1.008    3.839415  -16.851054   10.690224
  72 H     1.0000    0     1.008    1.376138  -14.614812   11.057504
  73 H     1.0000    0     1.008    5.452640  -13.049838   12.789760
  74 H     1.0000    0     1.008    6.817992  -13.202849    9.728982
  75 H     1.0000    0     1.008   -0.365675  -17.627850    7.972710
  76 H     1.0000    0     1.008    0.042582  -16.720800    4.777312
  77 H     1.0000    0     1.008   -3.798036  -14.791615    6.647529
  78 H     1.0000    0     1.008   -1.912718  -13.188208    8.910672
  79 H     1.0000    0     1.008    4.175633  -18.497392    5.897602
  80 H     1.0000    0     1.008    6.437321  -16.238651    6.889776
  81 H     1.0000    0     1.008    3.139151  -15.636561    2.184399
  82 H     1.0000    0     1.008    6.331883  -16.664287    2.216481
  83 N     7.0000    0    14.007   14.222363    4.401282  -15.213555
  84 C     6.0000    0    12.011   16.725907    5.480980  -14.518120
  85 C     6.0000    0    12.011   16.469141    7.465549  -12.431413
  86 C     6.0000    0    12.011   14.436152    1.754352  -16.142425
  87 C     6.0000    0    12.011   14.605051   -0.125587  -13.952650
  88 C     6.0000    0    12.011   12.831233    6.047631  -17.021758
  89 C     6.0000    0    12.011    9.969295    5.744615  -16.743892
  90 N     7.0000    0    14.007   15.347157    6.319969  -10.243801
  91 N     7.0000    0    14.007   12.352225    0.034351  -12.450433
  92 N     7.0000    0    14.007    9.235540    6.409836  -14.218934
  93 Na   11.0000    0    22.990   10.587947    4.082902   -9.826356
  94 H     1.0000    0     1.008   17.606331    6.299454  -16.195024
  95 H     1.0000    0     1.008   17.933160    3.959372  -13.825243
  96 H     1.0000    0     1.008   18.342801    8.279797  -12.051602
  97 H     1.0000    0     1.008   15.218400    8.998267  -13.035509
  98 H     1.0000    0     1.008   16.092155    1.594583  -17.363251
  99 H     1.0000    0     1.008   12.759352    1.306319  -17.256273
 100 H     1.0000    0     1.008   14.923837   -2.025445  -14.732605
 101 H     1.0000    0     1.008   16.200597    0.334728  -12.719561
 102 H     1.0000    0     1.008   13.423861    5.597910  -18.946519
 103 H     1.0000    0     1.008   13.317710    8.013590  -16.632136
 104 H     1.0000    0     1.008    9.412964    3.776254  -17.049013
 105 H     1.0000    0     1.008    9.036014    6.906993  -18.192029
 106 N     7.0000    0    14.007  -14.566106   10.125198   -2.528570
 107 C     6.0000    0    12.011  -14.840756   10.181247   -5.328112
 108 C     6.0000    0    12.011  -12.345414   10.866631   -6.617426
 109 C     6.0000    0    12.011  -16.356676    8.318713   -1.326301
 110 C     6.0000    0    12.011  -15.362188    5.606800   -1.449302
 111 C     6.0000    0    12.011  -14.745517   12.696626   -1.400571
 112 C     6.0000    0    12.011  -13.218978   12.881266    1.047721
 113 N     7.0000    0    14.007  -10.472747    9.009053   -5.985772
 114 N     7.0000    0    14.007  -12.987657    5.459926   -0.146727
 115 N     7.0000    0    14.007  -10.613341   12.345682    0.517844
 116 Na   11.0000    0    22.990   -8.558240    7.904014   -1.306523
 117 H     1.0000    0     1.008  -16.317425   11.528249   -5.840464
 118 H     1.0000    0     1.008  -15.414135    8.308876   -5.975299
 119 H     1.0000    0     1.008  -12.674750   11.022760   -8.663484
 120 H     1.0000    0     1.008  -11.653238   12.693636   -5.938698
 121 H     1.0000    0     1.008  -18.193629    8.460354   -2.255510
 122 H     1.0000    0     1.008  -16.586464    8.837844    0.656214
 123 H     1.0000    0     1.008  -16.801748    4.334779   -0.656471
 124 H     1.0000    0     1.008  -15.024378    5.044524   -3.410899
 125 H     1.0000    0     1.008  -16.728214   13.153237   -1.056879
 126 H     1.0000    0     1.008  -13.985239   14.063201   -2.745248
 127 H     1.0000    0     1.008  -13.871272   11.478062    2.420229
 128 H     1.0000    0     1.008  -13.507954   14.767096    1.871598
 129 C     6.0000    0    12.011   13.318229   14.567337    7.440770
 130 C     6.0000    0    12.011   -8.912543   13.775746    1.388056
 131 C     6.0000    0    12.011    7.386373    7.878587  -13.874099
 132 C     6.0000    0    12.011    1.417013   12.176444   -0.899284
 133 C     6.0000    0    12.011    3.357432   12.622728    0.817715
 134 C     6.0000    0    12.011    5.867592   12.257139    0.118305
 135 C     6.0000    0    12.011    6.428344   11.427042   -2.312701
 136 C     6.0000    0    12.011    4.500653   10.977450   -4.046416
 137 C     6.0000    0    12.011    1.998672   11.348813   -3.328288
 138 C     6.0000    0    12.011   -1.229600   12.630180   -0.186005
 139 C     6.0000    0    12.011   -1.949082   14.801047    1.122649
 140 C     6.0000    0    12.011   -4.476054   15.167666    1.675187
 141 C     6.0000    0    12.011   -6.238019   13.357935    0.902800
 142 N     7.0000    0    14.007   -5.545075   11.255146   -0.304528
 143 C     6.0000    0    12.011   -3.137157   10.913977   -0.824954
 144 C     6.0000    0    12.011    7.900407   12.812827    1.928440
 145 C     6.0000    0    12.011   10.049542   14.160191    1.214978
 146 C     6.0000    0    12.011   11.855479   14.713864    3.019879
 147 C     6.0000    0    12.011   11.475804   13.912030    5.507675
 148 N     7.0000    0    14.007    9.448533   12.571095    6.179416
 149 C     6.0000    0    12.011    7.735410   12.047415    4.454367
 150 C     6.0000    0    12.011    5.123955   10.174350   -6.632261
 151 C     6.0000    0    12.011    6.942922    8.309804   -7.087690
 152 C     6.0000    0    12.011    3.958342   11.259575   -8.731634
 153 C     6.0000    0    12.011    4.679399   10.487869  -11.121335
 154 C     6.0000    0    12.011    6.553696    8.643244  -11.367111
 155 N     7.0000    0    14.007    7.633336    7.566680   -9.358338
 156 H     1.0000    0     1.008   -0.566532   16.205012    1.652602
 157 H     1.0000    0     1.008   -5.083830   16.845601    2.661729
 158 H     1.0000    0     1.008   -2.682869    9.169376   -1.787558
 159 H     1.0000    0     1.008   10.280141   14.813418   -0.704107
 160 H     1.0000    0     1.008   13.520631   15.779900    2.520689
 161 H     1.0000    0     1.008    6.143799   10.940173    5.100952
 162 H     1.0000    0     1.008    7.867982    7.361205   -5.531752
 163 H     1.0000    0     1.008    2.551315   12.719763   -8.504418
 164 H     1.0000    0     1.008    3.826160   11.320185  -12.775867
 165 H     1.0000    0     1.008   15.030229   15.510138    6.754167
 166 H     1.0000    0     1.008   -9.358795   15.443333    2.533030
 167 H     1.0000    0     1.008    6.318069    8.689460  -15.452744
 168 C     6.0000    0    12.011    4.207156   14.281722   13.160265
 169 C     6.0000    0    12.011  -12.596069    3.683431    1.397989
 170 C     6.0000    0    12.011    4.106294   -8.696974   11.554046
 171 C     6.0000    0    12.011   -3.502788    3.086827    7.006075
 172 C     6.0000    0    12.011   -2.466989    5.359539    7.834995
 173 C     6.0000    0    12.011   -0.271138    5.374124    9.280583
 174 C     6.0000    0    12.011    0.897047    3.096251    9.888348
 175 C     6.0000    0    12.011   -0.126662    0.814013    9.077294
 176 C     6.0000    0    12.011   -2.323475    0.820620    7.628471
 177 C     6.0000    0    12.011   -5.860121    3.099959    5.535226
 178 C     6.0000    0    12.011   -7.826986    1.428955    6.066165
 179 C     6.0000    0    12.011  -10.036947    1.593049    4.682289
 180 C     6.0000    0    12.011  -10.240308    3.428623    2.793936
 181 N     7.0000    0    14.007   -8.336998    4.989122    2.244479
 182 C     6.0000    0    12.011   -6.236709    4.824852    3.566213
 183 C     6.0000    0    12.011    0.790748    7.763791   10.219120
 184 C     6.0000    0    12.011   -0.736472    9.626082   11.287790
 185 C     6.0000    0    12.011    0.379226   11.793052   12.228715
 186 C     6.0000    0    12.011    3.003345   12.056373   12.082661
 187 N     7.0000    0    14.007    4.459556   10.303401   11.002864
 188 C     6.0000    0    12.011    3.388892    8.243341   10.111687
 189 C     6.0000    0    12.011    1.062999   -1.594322    9.787007
 190 C     6.0000    0    12.011    1.349674   -3.553670    8.034449
 191 C     6.0000    0    12.011    1.924922   -2.034400   12.238212
 192 C     6.0000    0    12.011    2.960227   -4.361532   12.819834
 193 C     6.0000    0    12.011    3.107521   -6.209853   10.938880
 194 N     7.0000    0    14.007    2.328870   -5.773678    8.580434
 195 H     1.0000    0     1.008   -7.655736    0.061402    7.570569
 196 H     1.0000    0     1.008  -11.597460    0.341733    5.078492
 197 H     1.0000    0     1.008   -4.752781    6.122502    3.026446
 198 H     1.0000    0     1.008   -2.754581    9.362435   11.432398
 199 H     1.0000    0     1.008   -0.758496   13.247986   13.092965
 200 H     1.0000    0     1.008    4.656996    6.897509    9.241443
 201 H     1.0000    0     1.008    0.771888   -3.300481    6.090499
 202 H     1.0000    0     1.008    1.741617   -0.602696   13.680384
 203 H     1.0000    0     1.008    3.616614   -4.755787   14.709763
 204 H     1.0000    0     1.008    2.915636   15.742363   13.859723
 205 H     1.0000    0     1.008    4.890537   -8.894128   13.461188
 206 C     6.0000    0    12.011   -9.127132    8.055217   -7.710293
 207 C     6.0000    0    12.011   11.222101   -1.966341  -11.805524
 208 C     6.0000    0    12.011   -3.048714  -11.000624    3.922375
 209 C     6.0000    0    12.011    2.081451   -1.667253   -6.251347
 210 C     6.0000    0    12.011    0.400321    0.274806   -6.822944
 211 C     6.0000    0    12.011   -1.914455    0.441487   -5.587134
 212 C     6.0000    0    12.011   -2.542984   -1.346665   -3.762050
 213 C     6.0000    0    12.011   -0.878675   -3.296979   -3.179221
 214 C     6.0000    0    12.011    1.435403   -3.443441   -4.423358
 215 C     6.0000    0    12.011    4.493436   -1.856186   -7.617058
 216 C     6.0000    0    12.011    5.383422   -4.160836   -8.533926
 217 C     6.0000    0    12.011    7.617875   -4.208831   -9.886916
 218 C     6.0000    0    12.011    8.922284   -1.949277  -10.298298
 219 N     7.0000    0    14.007    8.104725    0.247583   -9.368002
 220 C     6.0000    0    12.011    5.975857    0.284114   -8.082809
 221 C     6.0000    0    12.011   -3.713856    2.458459   -6.230573
 222 C     6.0000    0    12.011   -4.224024    3.103421   -8.733853
 223 C     6.0000    0    12.011   -5.987705    4.966483   -9.227731
 224 C     6.0000    0    12.011   -7.208497    6.150624   -7.206982
 225 N     7.0000    0    14.007   -6.685338    5.569356   -4.809484
 226 C     6.0000    0    12.011   -5.007154    3.792502   -4.349149
 227 C     6.0000    0    12.011   -1.565672   -5.231418   -1.306938
 228 C     6.0000    0    12.011    0.174165   -6.067956    0.500259
 229 C     6.0000    0    12.011   -3.957263   -6.337345   -1.279761
 230 C     6.0000    0    12.011   -4.465730   -8.214911    0.464613
 231 C     6.0000    0    12.011   -2.569587   -8.954754    2.147956
 232 N     7.0000    0    14.007   -0.300026   -7.855853    2.162340
 233 H     1.0000    0     1.008    4.320476   -5.878298   -8.245148
 234 H     1.0000    0     1.008    8.329057   -5.963939  -10.643040
 235 H     1.0000    0     1.008   -3.298176    2.130664  -10.269976
 236 H     1.0000    0     1.008   -6.436658    5.479110  -11.149648
 237 H     1.0000    0     1.008   -4.644505    3.413326   -2.373809
 238 H     1.0000    0     1.008    2.036132   -5.233313    0.613126
 239 H     1.0000    0     1.008   -5.378601   -5.780079   -2.633500
 240 H     1.0000    0     1.008   -6.292487   -9.120228    0.503661
 241 H     1.0000    0     1.008   -9.351039    8.587785   -9.699637
 242 H     1.0000    0     1.008   -4.995073  -11.708177    3.962530
 243 H     1.0000    0     1.008   17.962666    7.906191   -7.819801
 244 H     1.0000    0     1.008    9.864038   -1.769365    6.410549
 245 H     1.0000    0     1.008   12.968285    4.985414    3.251674
 246 H     1.0000    0     1.008   11.583631   -1.417900   -1.472759
 247 H     1.0000    0     1.008    2.915301   13.289541    2.693697
 248 H     1.0000    0     1.008    8.372620   11.163041   -2.868773
 249 H     1.0000    0     1.008    0.500355   11.024167   -4.673280
 250 H     1.0000    0     1.008   -3.391894    7.119706    7.381249
 251 H     1.0000    0     1.008    2.589323    3.099168   11.026564
 252 H     1.0000    0     1.008   -3.136380   -0.945464    7.012527
 253 H     1.0000    0     1.008    0.882113    1.642652   -8.257011
 254 H     1.0000    0     1.008   -4.346576   -1.238492   -2.816264
 255 H     1.0000    0     1.008    2.723426   -4.963801   -3.989431
 256 H     1.0000    0     1.008    8.466587  -13.317053    0.669601
 257 H     1.0000    0     1.008   11.896015   -3.840234  -12.376073
 258 H     1.0000    0     1.008    5.415094    2.111364   -7.359182
 259 H     1.0000    0     1.008  -14.029228    2.243335    1.802167
 260 H     1.0000    0     1.008   10.894395   13.420639   13.696900
 261 H     1.0000    0     1.008    2.712612  -13.224610    6.671225
 262 H     1.0000    0     1.008  -12.757587    9.465545   -2.149048
 263 H     1.0000    0     1.008   13.157740    4.342597  -13.566647

--------------------------------
INTERNAL COORDINATES (ANGSTROEM)
--------------------------------
 N      0   0   0     0.000000000000     0.00000000     0.00000000
 C      1   0   0     1.488885492437     0.00000000     0.00000000
 C      2   1   0     1.529947931134   111.36624789     0.00000000
 C      1   2   3     1.488678963205   112.05198402   208.81171160
 C      4   1   2     1.529785816541   111.51056802    81.24270331
 C      1   2   3     1.488934464867   111.99727739    81.96529005
 C      6   1   2     1.530008898539   111.41202415   208.79439597
 N      3   2   1     1.435394869940   109.30001046    60.09811609
 N      5   4   1     1.435247046837   109.44569543    60.40267490
 N      7   6   1     1.435263705600   109.32819639    59.48961920
 Na     9   5   4     2.725096394642   128.00236431   297.74892017
 H      2   1   3     1.091933972886   109.28051173   237.51115605
 H      2   1   3     1.091290859051   108.72687280   119.35753487
 H      3   2   1     1.099749367226   108.64996218   183.74831894
 H      3   2   1     1.094623064421   110.59766898   302.08090285
 H      4   1   2     1.091945272371   109.21603213   318.79107021
 H      4   1   2     1.091341851007   108.69192958   200.64806811
 H      5   4   1     1.099814382903   108.60176271   184.10224132
 H      5   4   1     1.094523259151   110.61273687   302.41276175
 H      6   1   2     1.091978128575   109.28963444    86.30290788
 H      6   1   2     1.091274726613   108.67615126   328.17086269
 H      7   6   1     1.099702585337   108.63764730   183.18055536
 H      7   6   1     1.094530313739   110.61412249   301.52276686
 C      8   3   2     1.262879520612   119.63647544   133.59043049
 C     24   8   3    12.200405660130   144.17656717   156.57375669
 C      9   5   4    10.372123465559   125.87516370   172.01777538
 C     25  24   8     5.661778293158    30.85276053    50.41385306
 C     27  25  24     1.392500288891   116.84049301   357.76517162
 C     28  27  25     1.391426990638   120.49518734   177.61898035
 C     29  28  27     1.392516291365   119.51924718     0.36067434
 C     30  29  28     1.391364010972   120.45234402   359.62483163
 C     27  25  24     1.391261604635   123.61673084   175.66375944
 C     27  25  24     1.470154792748     3.03961413   182.79812995
 C     33  27  32     1.394569214369   121.51587742    43.38482621
 C     34  33  27     1.382542251653   119.02307433   177.37636487
 C     35  34  33     1.397693840110   119.14963036   359.90700140
 N     36  35  34     1.334370024801   121.85004372     1.81696570
 C     37  36  35     1.316015769303   118.75628673   358.23736264
 C     29  28  27     1.470277221512   120.53205910   181.99070757
 C     39  29  28     1.394565324844   121.47616348    43.33130329
 C     40  39  29     1.382404662611   119.02057962   177.74696760
 C     41  40  39     1.397721980821   119.16155621   359.89777052
 N     42  41  40     1.334408965311   121.84989979     1.60620490
 C     43  42  41     1.316134684466   118.75097999   358.42114158
 C     31  30  29     1.469940858850   120.66168572   182.12991568
 C     45  31  30     1.399305315417   121.23620134   222.08130509
 C     45  31  30     1.394467665993   121.51751911    43.37462391
 C     47  45  31     1.382450726161   119.00488313   177.25531115
 C     48  47  45     1.397771795182   119.14651220   359.91526815
 N     46  45  31     1.316006880129   123.96668247   182.86303026
 H     34  33  27     1.079700339131   120.72838440   359.24610686
 H     35  34  33     1.079060238522   120.40812894   181.05655473
 H     38  37  36     1.081508541169   115.50086784   179.31909901
 H     40  39  29     1.079668958808   120.71774445   359.60515336
 H     41  40  39     1.079070433344   120.40419915   181.01155616
 H     44  43  42     1.081553118534   115.50453454   179.41978144
 H     46  45  31     1.081569246658   120.51040571     3.43485491
 H     47  45  31     1.079713383495   120.70723667   359.15228444
 H     48  47  45     1.079059033766   120.42489917   181.04178599
 H     24   8   3     1.096199244701   122.00885836   359.38486156
 N     25  24   8     4.119989281219    92.79406269   251.78472231
 C     61  25  24     1.488817063778   124.22316967   318.72907619
 C     62  61  25     1.530045603629   111.48983684    20.50970442
 C     61  25  24     1.488899143396   123.18950878   129.86920734
 C     64  61  25     1.530170821285   111.43879170   269.59748145
 C     61  25  24     1.488999090945    54.39122409   224.59394088
 C     66  61  25     1.530045324419   111.32591338   326.09260071
 N     63  62  61     1.435264067929   109.38040283    60.50394052
 N     65  64  61     1.435279250187   109.31231445    59.40898951
 N     25  24   8     1.262855571739    95.62676911   262.21202198
 Na    37  36  35     2.433877580313   122.13162244   176.10697372
 H     62  61  25     1.092012895744   109.24884806   258.01221953
 H     62  61  25     1.091317976477   108.68073086   139.86844781
 H     63  62  61     1.099826297937   108.58845401   184.13045563
 H     63  62  61     1.094490787639   110.62439672   302.50033712
 H     64  61  25     1.091908702871   109.29469069   147.08887023
 H     64  61  25     1.091320993094   108.65142370    28.95623417
 H     65  64  61     1.099738347762   108.62579064   183.10142699
 H     65  64  61     1.094521125864   110.61371691   301.41770429
 H     66  61  25     1.091942680221   109.31036709   203.59406328
 H     66  61  25     1.091320266994   108.70473120    85.41110201
 H     67  66  61     1.094546648852   110.60797360   301.91292585
 H     67  66  61     1.099661433711   108.67595897   183.53392413
 N     26   9   5     4.113488739087   154.44828806   189.06001129
 C     84  26   9     1.488964968846    54.74065817   148.96131246
 C     85  84  26     1.529934199423   111.27010388   326.34071392
 C     84  26   9     1.488742683715   124.26278402   243.21179332
 C     87  84  26     1.529845075872   111.47962532    20.08371584
 C     84  26   9     1.488795544407   123.10331872    54.01519464
 C     89  84  26     1.530019075654   111.49034160   269.56516284
 N     26   9   5     1.262882387390   145.00881566   198.49960825
 N     88  87  84     1.435373597354   109.42817127    61.16464440
 N     90  89  84     1.435263446125   109.36272729    59.73074028
 Na    50  46  45     2.444689694019   118.38034466   183.42931090
 H     85  84  26     1.091831581948   109.33046483   203.85539322
 H     85  84  26     1.091290056849   108.71038285    85.66998070
 H     86  85  84     1.099601568528   108.71265030   182.96336800
 H     86  85  84     1.094579767847   110.58225459   301.31241209
 H     87  84  26     1.091989878947   109.21777784   257.63844221
 H     87  84  26     1.091318209667   108.71972744   139.49888905
 H     88  87  84     1.099799946727   108.61103905   184.81839527
 H     88  87  84     1.094535860275   110.60431068   303.16236461
 H     89  84  26     1.091973554953   109.26562593   147.06520754
 H     89  84  26     1.091370593861   108.64860772    28.93374561
 H     90  89  84     1.094393233346   110.59995296   301.72603455
 H     90  89  84     1.099777054784   108.59769686   183.40193423
 N     56  44  43    13.903998460341   131.50998710   272.97039083
 C    107  56  44     1.488861345937   115.53239792   218.89422831
 C    108 107  56     1.529936288518   111.35844053   337.51515367
 C    107  56  44     1.488764608557   111.05789856   347.96536283
 C    110 107  56     1.529917717888   111.41985671   310.62279892
 C    107  56  44     1.488936882301    92.79612490   102.86529126
 C    112 107  56     1.529912194383   111.35784273   327.85246209
 N    109 108 107     1.435277058442   109.25058625    60.50853306
 N    111 110 107     1.435296931022   109.36005746    60.06696297
 N    113 112 107     1.435325853691   109.21952526    59.98417447
 Na   114 109 108     2.738553153777   127.75148794   296.78576646
 H    108 107  56     1.091884918734   109.26510291   215.01683198
 H    108 107  56     1.091361689937   108.74147677    96.86339447
 H    109 108 107     1.099771114300   108.66755117   184.16280575
 H    109 108 107     1.094479339353   110.60428702   302.60751460
 H    110 107  56     1.091938988199   109.27320603   188.13546678
 H    110 107  56     1.091268598158   108.66943246    69.97171004
 H    111 110 107     1.099740817672   108.64070454   183.76843882
 H    111 110 107     1.094531496341   110.58047163   302.09451899
 H    112 107  56     1.091915576713   109.28579758   205.34198854
 H    112 107  56     1.091402578057   108.70322735    87.17036597
 H    113 112 107     1.094546406792   110.61494899   302.01284515
 H    113 112 107     1.099700285986   108.67863688   183.63190928
 C      9   5   4     1.262895592008   119.60319548   133.09259999
 C    116 113 112     1.262846032237   119.67539063   133.08385532
 C     93  90  89     1.262900759688   119.67474624   132.35040270
 C    131 116 113     5.662181809875   121.36595451   182.81797192
 C    133 131 116     1.391291620115   123.19647642   215.61333402
 C    134 133 131     1.392423239965   120.45692537   181.73707196
 C    135 134 133     1.391373221554   119.54266139   359.66648405
 C    136 135 134     1.392439513724   120.45646764     0.40219657
 C    137 136 135     1.391397130753   119.53920065   359.60099521
 C    133 131 116     1.470236867417     2.68810316   215.73238438
 C    139 133 134     1.394348559623   121.47740282    44.08976169
 C    140 139 133     1.382489743403   118.99733190   177.99226304
 C    141 140 139     1.397691705670   119.15985796   359.85043425
 N    142 141 140     1.334485221002   121.87235552     1.54041248
 C    143 142 141     1.316078792770   118.72509101   358.50348792
 C    135 134 133     1.470095065624   119.80593406   178.09146072
 C    145 135 134     1.394379463298   121.51140558   225.42532074
 C    146 145 135     1.382523288706   119.01870940   177.48982587
 C    147 146 145     1.397690977665   119.14407719   359.90497042
 N    148 147 146     1.334447235248   121.86327632     1.71188818
 C    149 148 147     1.316026996277   118.74928358   358.33328423
 C    137 136 135     1.470319640865   119.88312944   178.16043477
 C    151 137 136     1.399329906177   121.22494556    44.56332672
 C    151 137 136     1.394432992110   121.54631411   225.49623586
 C    153 151 137     1.382573377951   119.01112721   177.89399372
 C    154 153 151     1.397673053925   119.15960308     0.00000000
 N    152 151 137     1.316018461157   123.98047782   182.07871406
 H    140 139 133     1.079756569191   120.72135581   359.74085071
 H    141 140 139     1.079070434387   120.40360805   180.90648582
 H    144 143 142     1.081467095221   115.52377572   179.39976385
 H    146 145 135     1.079673149426   120.70201232   359.32156995
 H    147 146 145     1.079100099113   120.40569722   180.97860271
 H    150 149 148     1.081553475456   115.53543310   179.40155111
 H    152 151 137     1.081454624242   120.49917820     2.77385463
 H    153 151 137     1.079768171674   120.73184465   359.64486783
 H    154 153 151     1.079085728497   120.40362347   180.95674480
 H    130   9   5     1.096207270070   122.01288373   359.20240122
 H    131 116 113     1.096170103640   122.03466496   359.39208786
 H    132  93  90     1.096164385524   122.03234228   359.39286380
 C     10   7   6     1.262912233220   119.69050388   132.97468759
 C    115 111 110     1.262885799742   119.65699818   133.38106182
 C     68  63  62     1.262883414604   119.63466554   132.44220312
 C    170 115 111     5.662302847517   121.34487322   182.75563115
 C    172 170 115     1.392571397125   116.83546442    36.92265484
 C    173 172 170     1.391212944801   120.44721416   178.31959225
 C    174 173 172     1.392323672431   119.54106765     0.27088054
 C    175 174 173     1.391484493049   120.48458879   359.50560907
 C    172 170 115     1.391429007699   123.59133468   215.30791543
 C    172 170 115     1.470369009387     2.94066324   218.80208242
 C    178 172 177     1.394329943645   121.57620425    44.08093333
 C    179 178 172     1.382557491706   119.00252275   177.54971277
 C    180 179 178     1.397725815627   119.17360939   359.91872264
 N    181 180 179     1.334497515969   121.84945372     1.69820700
 C    182 181 180     1.316064851527   118.73178308   358.33929139
 C    174 173 172     1.470214115870   120.64741322   181.69723344
 C    184 174 173     1.394317606837   121.56028338    44.37484232
 C    185 184 174     1.382548598235   118.99742830   177.47190316
 C    186 185 184     1.397736161945   119.14537627     0.00000000
 N    187 186 185     1.334474093490   121.87476180     1.71960315
 C    188 187 186     1.315978428626   118.72903263   358.23753295
 C    176 175 174     1.470223645953   120.45456464   181.93640185
 C    190 176 175     1.399339977077   121.29217181   222.62149868
 C    190 176 175     1.394558976170   121.49331918    43.40079557
 C    192 190 176     1.382528548512   119.03992819   178.08296409
 C    193 192 190     1.397666639511   119.13667766   359.81172136
 N    191 190 176     1.316083727981   123.95790165   182.13028883
 H    179 178 172     1.079671718354   120.73045207   359.35711443
 H    180 179 178     1.079050764718   120.38944257   181.02515781
 H    183 182 181     1.081554339481   115.52223259   179.42026140
 H    185 184 174     1.079727495838   120.71087732   359.28965013
 H    186 185 184     1.079076811286   120.40871072   181.02436323
 H    189 188 187     1.081474751308   115.52900804   179.42546884
 H    191 190 176     1.081501712120   120.52728754     2.72992311
 H    192 190 176     1.079733737155   120.72158266   359.81308419
 H    193 192 190     1.079069360697   120.40484484   180.84662415
 H    169  10   7     1.096142955089   122.04390444   359.22968030
 H    171  68  63     1.096188647982   122.01600884   359.38991632
 C    114 109 108     1.262778622797   119.65560711   132.19840406
 C     92  88  87     1.262934116259   119.57165865   132.86655045
 C     69  65  64     1.262928114387   119.74954509   132.92900240
 C     57  46  45     5.002700047198   172.05455186   155.84253773
 C    210  57  46     1.392501892285   108.14653783   316.80238358
 C    211 210  57     1.391363833184   120.47283006   233.26924170
 C    212 211 210     1.392396686775   119.55291595     0.18404908
 C    213 212 211     1.391377456960   120.43996436   359.71894361
 C    210  57  46     1.391420458469   109.79071726   184.82476349
 C    210  57  46     1.470173405148    50.93118025    70.94541752
 C    216 210  57     1.394472952316   121.58235737   134.93936922
 C    217 216 210     1.382526974051   119.01917711   177.58727954
 C    218 217 216     1.397699537542   119.16461116     0.00000000
 N    219 218 217     1.334539173000   121.84763047     1.69525515
 C    220 219 218     1.316060162330   118.74566994   358.26300760
 C    212 211 210     1.470316198305   120.48560498   181.37734457
 C    222 212 211     1.394325233475   121.53987739    44.26712738
 C    223 222 212     1.382509014198   119.00331050   178.16090544
 C    224 223 222     1.397664085264   119.15085204     0.00000000
 N    225 224 223     1.334488862095   121.88009126     1.32904471
 C    226 225 224     1.316090462078   118.72636902   358.59695787
 C    214 213 212     1.470261661042   120.61744287   181.79521656
 C    228 214 213     1.399350035898   121.20484264   222.95485096
 C    228 214 213     1.394411426083   121.57274094    43.98442488
 C    230 228 214     1.382624845364   119.01972891   177.58195953
 C    231 230 228     1.397706326976   119.14856900   359.89596269
 N    229 228 214     1.315933448952   123.96968891   182.56327988
 H    217 216 210     1.079693163195   120.72952580   359.44566767
 H    218 217 216     1.079042866952   120.40695121   181.04389523
 H    223 222 212     1.079719260301   120.71058787   359.86399274
 H    224 223 222     1.079068632790   120.40270102   180.95342723
 H    227 226 225     1.081550020670   115.54137267   179.41117051
 H    229 228 214     1.081425005140   120.53091317     3.14463388
 H    230 228 214     1.079749570161   120.71439366   359.37787203
 H    231 230 228     1.079075828168   120.40833203   180.97441321
 H    207 114 109     1.096208346793   122.02504267   359.42728508
 H    209  69  65     1.096119439017   122.05980351   359.32434772
 H     26   9   5     1.096156002152    78.66573518   329.60283166
 H     28  27  25     1.079118709807   119.74931873   358.82015187
 H     30  29  28     1.079212943605   119.78685688   180.79874541
 H     32  27  25     1.079185126798   119.75264670     1.34852104
 H    134 133 131     1.079240138613   119.74963029     0.61381883
 H    136 135 134     1.079199742405   119.75497487   179.26665055
 H    138 137 136     1.079230045564   119.76709479   179.26215821
 H    173 172 170     1.079252304640   119.78671720   359.41413190
 H    175 174 173     1.079228378676   119.74155040   180.66739864
 H    177 172 170     1.079217229130   119.74159390     0.75264551
 H    211 210  57     1.079271439728   119.78742581    54.30663168
 H    213 212 211     1.079204546499   119.79346705   180.79317706
 H    215 210  57     1.079156893615   119.75907386   305.04222178
 H     25  24   8     1.096155392956   136.71501556   110.27447495
 H    208  92  88     1.096196718855   121.99551703   359.29913188
 H    221 220 219     1.081508426674   115.52919679   179.43742822
 H    170 115 111     1.096199666047   122.02318518   359.27368409
 H      1   2   3     1.038201313129   106.75965778   325.44145499
 H     61  25  24     1.038100781824    52.32203057    43.94584538
 H    107  56  44     1.038309899009    14.17611454   273.25615652
 H     84  26   9     1.038209186222    51.93075023   328.19488992

---------------------------
INTERNAL COORDINATES (A.U.)
---------------------------
 N      0   0   0     0.000000000000     0.00000000     0.00000000
 C      1   0   0     2.813585825475     0.00000000     0.00000000
 C      2   1   0     2.891182589002   111.36624789     0.00000000
 C      1   2   3     2.813195541787   112.05198402   208.81171160
 C      4   1   2     2.890876236820   111.51056802    81.24270331
 C      1   2   3     2.813678369955   111.99727739    81.96529005
 C      6   1   2     2.891297800702   111.41202415   208.79439597
 N      3   2   1     2.712503198223   109.30001046    60.09811609
 N      5   4   1     2.712223853040   109.44569543    60.40267490
 N      7   6   1     2.712255333541   109.32819639    59.48961920
 Na     9   5   4     5.149685874409   128.00236431   297.74892017
 H      2   1   3     2.063456165080   109.28051173   237.51115605
 H      2   1   3     2.062240856057   108.72687280   119.35753487
 H      3   2   1     2.078225120010   108.64996218   183.74831894
 H      3   2   1     2.068537811630   110.59766898   302.08090285
 H      4   1   2     2.063477518010   109.21603213   318.79107021
 H      4   1   2     2.062337216890   108.69192958   200.64806811
 H      5   4   1     2.078347981835   108.60176271   184.10224132
 H      5   4   1     2.068349207002   110.61273687   302.41276175
 H      6   1   2     2.063539607238   109.28963444    86.30290788
 H      6   1   2     2.062210370168   108.67615126   328.17086269
 H      7   6   1     2.078136715053   108.63764730   183.18055536
 H      7   6   1     2.068362538243   110.61412249   301.52276686
 C      8   3   2     2.386496434094   119.63647544   133.59043049
 C     24   8   3    23.055425420389   144.17656717   156.57375669
 C      9   5   4    19.600472777124   125.87516370   172.01777538
 C     25  24   8    10.699210405048    30.85276053    50.41385306
 C     27  25  24     2.631444187410   116.84049301   357.76517162
 C     28  27  25     2.629415947652   120.49518734   177.61898035
 C     29  28  27     2.631474427704   119.51924718     0.36067434
 C     30  29  28     2.629296933332   120.45234402   359.62483163
 C     27  25  24     2.629103413400   123.61673084   175.66375944
 C     27  25  24     2.778189932766     3.03961413   182.79812995
 C     33  27  32     2.635353889955   121.51587742    43.38482621
 C     34  33  27     2.612626224198   119.02307433   177.37636487
 C     35  34  33     2.641258576877   119.14963036   359.90700140
 N     36  35  34     2.521593908188   121.85004372     1.81696570
 C     37  36  35     2.486909391904   118.75628673   358.23736264
 C     29  28  27     2.778421289600   120.53205910   181.99070757
 C     39  29  28     2.635346539817   121.47616348    43.33130329
 C     40  39  29     2.612366218591   119.02057962   177.74696760
 C     41  40  39     2.641311755114   119.16155621   359.89777052
 N     42  41  40     2.521667495087   121.84989979     1.60620490
 C     43  42  41     2.487134108996   118.75097999   358.42114158
 C     31  30  29     2.777785656288   120.66168572   182.12991568
 C     45  31  30     2.644303823878   121.23620134   222.08130509
 C     45  31  30     2.635161991335   121.51751911    43.37462391
 C     47  45  31     2.612453266085   119.00488313   177.25531115
 C     48  47  45     2.641405890613   119.14651220   359.91526815
 N     46  45  31     2.486892593800   123.96668247   182.86303026
 H     34  33  27     2.040337947660   120.72838440   359.24610686
 H     35  34  33     2.039128332810   120.40812894   181.05655473
 H     38  37  36     2.043754954307   115.50086784   179.31909901
 H     40  39  29     2.040278647442   120.71774445   359.60515336
 H     41  40  39     2.039147598231   120.40419915   181.01155616
 H     44  43  42     2.043839193318   115.50453454   179.41978144
 H     46  45  31     2.043869671055   120.51040571     3.43485491
 H     47  45  31     2.040362597934   120.70723667   359.15228444
 H     48  47  45     2.039126056151   120.42489917   181.04178599
 H     24   8   3     2.071516360695   122.00885836   359.38486156
 N     25  24   8     7.785651416194    92.79406269   251.78472231
 C     61  25  24     2.813456514050   124.22316967   318.72907619
 C     62  61  25     2.891367163269   111.48983684    20.50970442
 C     61  25  24     2.813611622049   123.18950878   129.86920734
 C     64  61  25     2.891603790347   111.43879170   269.59748145
 C     61  25  24     2.813800495544    54.39122409   224.59394088
 C     66  61  25     2.891366635638   111.32591338   326.09260071
 N     63  62  61     2.712256018244   109.38040283    60.50394052
 N     65  64  61     2.712284708552   109.31231445    59.40898951
 N     25  24   8     2.386451177283    95.62676911   262.21202198
 Na    37  36  35     4.599362070282   122.13162244   176.10697372
 H     62  61  25     2.063605307666   109.24884806   258.01221953
 H     62  61  25     2.062292100566   108.68073086   139.86844781
 H     63  62  61     2.078370497986   108.58845401   184.13045563
 H     63  62  61     2.068287844738   110.62439672   302.50033712
 H     64  61  25     2.063408411672   109.29469069   147.08887023
 H     64  61  25     2.062297801146   108.65142370    28.95623417
 H     65  64  61     2.078204296241   108.62579064   183.10142699
 H     65  64  61     2.068345175675   110.61371691   301.41770429
 H     66  61  25     2.063472619557   109.31036709   203.59406328
 H     66  61  25     2.062296429016   108.70473120    85.41110201
 H     67  66  61     2.068393407131   110.60797360   301.91292585
 H     67  66  61     2.078058949750   108.67595897   183.53392413
 N     26   9   5     7.773367171843   154.44828806   189.06001129
 C     84  26   9     2.813736014122    54.74065817   148.96131246
 C     85  84  26     2.891156639830   111.27010388   326.34071392
 C     84  26   9     2.813315956100   124.26278402   243.21179332
 C     87  84  26     2.890988220726   111.47962532    20.08371584
 C     84  26   9     2.813415848331   123.10331872    54.01519464
 C     89  84  26     2.891317032662   111.49034160   269.56516284
 N     26   9   5     2.386501851520   145.00881566   198.49960825
 N     88  87  84     2.712462998860   109.42817127    61.16464440
 N     90  89  84     2.712254843204   109.36272729    59.73074028
 Na    50  46  45     4.619794004116   118.38034466   183.42931090
 H     85  84  26     2.063262674248   109.33046483   203.85539322
 H     85  84  26     2.062239340115   108.71038285    85.66998070
 H     86  85  84     2.077945820949   108.71265030   182.96336800
 H     86  85  84     2.068455992963   110.58225459   301.31241209
 H     87  84  26     2.063561812223   109.21777784   257.63844221
 H     87  84  26     2.062292541232   108.71972744   139.49888905
 H     88  87  84     2.078320701414   108.61103905   184.81839527
 H     88  87  84     2.068373019675   110.60431068   303.16236461
 H     89  84  26     2.063530964345   109.26562593   147.06520754
 H     89  84  26     2.062391533012   108.64860772    28.93374561
 H     90  89  84     2.068103493841   110.59995296   301.72603455
 H     90  89  84     2.078277441913   108.59769686   183.40193423
 N     56  44  43    26.274749256507   131.50998710   272.97039083
 C    107  56  44     2.813540195201   115.53239792   218.89422831
 C    108 107  56     2.891160587646   111.35844053   337.51515367
 C    107  56  44     2.813357388048   111.05789856   347.96536283
 C    110 107  56     2.891125494242   111.41985671   310.62279892
 C    107  56  44     2.813682938244    92.79612490   102.86529126
 C    112 107  56     2.891115056330   111.35784273   327.85246209
 N    109 108 107     2.712280566756   109.25058625    60.50853306
 N    111 110 107     2.712318120489   109.36005746    60.06696297
 N    113 112 107     2.712372776413   109.21952526    59.98417447
 Na   114 109 108     5.175115463824   127.75148794   296.78576646
 H    108 107  56     2.063363466167   109.26510291   215.01683198
 H    108 107  56     2.062374707035   108.74147677    96.86339447
 H    109 108 107     2.078266216024   108.66755117   184.16280575
 H    109 108 107     2.068266210613   110.60428702   302.60751460
 H    110 107  56     2.063465642648   109.27320603   188.13546678
 H    110 107  56     2.062198789066   108.66943246    69.97171004
 H    111 110 107     2.078208963694   108.64070454   183.76843882
 H    111 110 107     2.068364773036   110.58047163   302.09451899
 H    112 107  56     2.063421401351   109.28579758   205.34198854
 H    112 107  56     2.062451974383   108.70322735    87.17036597
 H    113 112 107     2.068392949705   110.61494899   302.01284515
 H    113 112 107     2.078132369908   108.67863688   183.63190928
 C      9   5   4     2.386526804632   119.60319548   133.09259999
 C    116 113 112     2.386433150237   119.67539063   133.08385532
 C     93  90  89     2.386536570132   119.67474624   132.35040270
 C    131 116 113    10.699972941135   121.36595451   182.81797192
 C    133 131 116     2.629160134437   123.19647642   215.61333402
 C    134 133 131     2.631298586041   120.45692537   181.73707196
 C    135 134 133     2.629314338809   119.54266139   359.66648405
 C    136 135 134     2.631329338989   120.45646764     0.40219657
 C    137 136 135     2.629359520647   119.53920065   359.60099521
 C    133 131 116     2.778345031413     2.68810316   215.73238438
 C    139 133 134     2.634936912916   121.47740282    44.08976169
 C    140 139 133     2.612526997987   118.99733190   177.99226304
 C    141 140 139     2.641254543370   119.15985796   359.85043425
 N    142 141 140     2.521811597459   121.87235552     1.54041248
 C    143 142 141     2.487028488997   118.72509101   358.50348792
 C    135 134 133     2.778077064859   119.80593406   178.09146072
 C    145 135 134     2.634995312397   121.51140558   225.42532074
 C    146 145 135     2.612590389422   119.01870940   177.48982587
 C    147 146 145     2.641253167640   119.14407719   359.90497042
 N    148 147 146     2.521739814787   121.86327632     1.71188818
 C    149 148 147     2.486930607811   118.74928358   358.33328423
 C    137 136 135     2.778501450561   119.88312944   178.16043477
 C    151 137 136     2.644350293680   121.22494556    44.56332672
 C    151 137 136     2.635096467193   121.54631411   225.49623586
 C    153 151 137     2.612685044379   119.01112721   177.89399372
 C    154 153 151     2.641219296680   119.15960308     0.00000000
 N    152 151 137     2.486914478771   123.98047782   182.07871406
 H    140 139 133     2.040444207073   120.72135581   359.74085071
 H    141 140 139     2.039147600202   120.40360805   180.90648582
 H    144 143 142     2.043676632815   115.52377572   179.39976385
 H    146 145 135     2.040286566564   120.70201232   359.32156995
 H    147 146 145     2.039203658411   120.40569722   180.97860271
 H    150 149 148     2.043839867802   115.53543310   179.40155111
 H    152 151 137     2.043653066080   120.49917820     2.77385463
 H    153 151 137     2.040466132589   120.73184465   359.64486783
 H    154 153 151     2.039176501882   120.40362347   180.95674480
 H    130   9   5     2.071531526445   122.01288373   359.20240122
 H    131 116 113     2.071461292072   122.03466496   359.39208786
 H    132  93  90     2.071450486398   122.03234228   359.39286380
 C     10   7   6     2.386558251964   119.69050388   132.97468759
 C    115 111 110     2.386508299930   119.65699818   133.38106182
 C     68  63  62     2.386503792674   119.63466554   132.44220312
 C    170 115 111    10.700201669130   121.34487322   182.75563115
 C    172 170 115     2.631578562499   116.83546442    36.92265484
 C    173 172 170     2.629011459641   120.44721416   178.31959225
 C    174 173 172     2.631110430669   119.54106765     0.27088054
 C    175 174 173     2.629524611461   120.48458879   359.50560907
 C    172 170 115     2.629419759345   123.59133468   215.30791543
 C    172 170 115     2.778594743547     2.94066324   218.80208242
 C    178 172 177     2.634901733814   121.57620425    44.08093333
 C    179 178 172     2.612655023726   119.00252275   177.54971277
 C    180 179 178     2.641319001847   119.17360939   359.91872264
 N    181 180 179     2.521834831580   121.84945372     1.69820700
 C    182 181 180     2.487002143867   118.73178308   358.33929139
 C    174 173 172     2.778302037220   120.64741322   181.69723344
 C    184 174 173     2.634878420627   121.56028338    44.37484232
 C    185 184 174     2.612638217502   118.99742830   177.47190316
 C    186 185 184     2.641338553555   119.14537627     0.00000000
 N    187 186 185     2.521790569509   121.87476180     1.71960315
 C    188 187 186     2.486838828251   118.72903263   358.23753295
 C    176 175 174     2.778320046466   120.45456464   181.93640185
 C    190 176 175     2.644369324922   121.29217181   222.62149868
 C    190 176 175     2.635334542563   121.49331918    43.40079557
 C    192 190 176     2.612600329016   119.03992819   178.08296409
 C    193 192 190     2.641207175193   119.13667766   359.81172136
 N    191 190 176     2.487037815194   123.95790165   182.13028883
 H    179 178 172     2.040283862230   120.73045207   359.35711443
 H    180 179 178     2.039110429916   120.38944257   181.02515781
 H    183 182 181     2.043841500574   115.52223259   179.42026140
 H    185 184 174     2.040389266398   120.71087732   359.28965013
 H    186 185 184     2.039159650795   120.40871072   181.02436323
 H    189 188 187     2.043691100722   115.52900804   179.42546884
 H    191 190 176     2.043742049274   120.52728754     2.72992311
 H    192 190 176     2.040401060778   120.72158266   359.81308419
 H    193 192 190     2.039145571224   120.40484484   180.84662415
 H    169  10   7     2.071409988746   122.04390444   359.22968030
 H    171  68  63     2.071496335799   122.01600884   359.38991632
 C    114 109 108     2.386305764856   119.65560711   132.19840406
 C     92  88  87     2.386599604915   119.57165865   132.86655045
 C     69  65  64     2.386588263021   119.74954509   132.92900240
 C     57  46  45     9.453733019360   172.05455186   155.84253773
 C    210  57  46     2.631447217385   108.14653783   316.80238358
 C    211 210  57     2.629296597361   120.47283006   233.26924170
 C    212 211 210     2.631248407784   119.55291595     0.18404908
 C    213 212 211     2.629322342567   120.43996436   359.71894361
 C    210  57  46     2.629403603642   109.79071726   184.82476349
 C    210  57  46     2.778225105104    50.93118025    70.94541752
 C    216 210  57     2.635171981037   121.58235737   134.93936922
 C    217 216 210     2.612597353715   119.01917711   177.58727954
 C    218 217 216     2.641269343462   119.16461116     0.00000000
 N    219 218 217     2.521913551960   121.84763047     1.69525515
 C    220 219 218     2.486993282568   118.74566994   358.26300760
 C    212 211 210     2.778494945065   120.48560498   181.37734457
 C    222 212 211     2.634892832883   121.53987739    44.26712738
 C    223 222 212     2.612563414511   119.00331050   178.16090544
 C    224 223 222     2.641202348366   119.15085204     0.00000000
 N    225 224 223     2.521818478128   121.88009126     1.32904471
 C    226 225 224     2.487050540793   118.72636902   358.59695787
 C    214 213 212     2.778391884573   120.61744287   181.79521656
 C    228 214 213     2.644388333341   121.20484264   222.95485096
 C    228 214 213     2.635055713308   121.57274094    43.98442488
 C    230 228 214     2.612782303692   119.01972891   177.58195953
 C    231 230 228     2.641282173634   119.14856900   359.89596269
 N    229 228 214     2.486753828986   123.96968891   182.56327988
 H    217 216 210     2.040324387106   120.72952580   359.44566767
 H    218 217 216     2.039095505300   120.40695121   181.04389523
 H    223 222 212     2.040373703488   120.71058787   359.86399274
 H    224 223 222     2.039144195678   120.40270102   180.95342723
 H    227 226 225     2.043833339202   115.54137267   179.41117051
 H    229 228 214     2.043597094090   120.53091317     3.14463388
 H    230 228 214     2.040430980824   120.71439366   359.37787203
 H    231 230 228     2.039157792972   120.40833203   180.97441321
 H    207 114 109     2.071533561157   122.02504267   359.42728508
 H    209  69  65     2.071365549809   122.05980351   359.32434772
 H     26   9   5     2.071434644122    78.66573518   329.60283166
 H     28  27  25     2.039238827526   119.74931873   358.82015187
 H     30  29  28     2.039416903597   119.78685688   180.79874541
 H     32  27  25     2.039364337450   119.75264670     1.34852104
 H    134 133 131     2.039468294713   119.74963029     0.61381883
 H    136 135 134     2.039391956944   119.75497487   179.26665055
 H    138 137 136     2.039449221615   119.76709479   179.26215821
 H    173 172 170     2.039491285174   119.78671720   359.41413190
 H    175 174 173     2.039446071653   119.74155040   180.66739864
 H    177 172 170     2.039425002065   119.74159390     0.75264551
 H    211 210  57     2.039527445249   119.78742581    54.30663168
 H    213 212 211     2.039401035367   119.79346705   180.79317706
 H    215 210  57     2.039310984466   119.75907386   305.04222178
 H     25  24   8     2.071433492907   136.71501556   110.27447495
 H    208  92  88     2.071511587540   121.99551703   359.29913188
 H    221 220 219     2.043754737943   115.52919679   179.43742822
 H    170 115 111     2.071517156926   122.02318518   359.27368409
 H      1   2   3     1.961916153690   106.75965778   325.44145499
 H     61  25  24     1.961726177056    52.32203057    43.94584538
 H    107  56  44     1.962121351266    14.17611454   273.25615652
 H     84  26   9     1.961931031680    51.93075023   328.19488992

---------------------
BASIS SET INFORMATION
---------------------
There are 4 groups of distinct atoms

 Group   1 Type N   : 11s6p2d contracted to 5s3p2d pattern {62111/411/11}
 Group   2 Type C   : 11s6p1d contracted to 5s3p1d pattern {62111/411/1}
 Group   3 Type Na  : 14s7p contracted to 5s3p pattern {73211/511}
 Group   4 Type H   : 4s1p contracted to 2s1p pattern {31/1}

Atom   0N    basis set group =>   1
Atom   1C    basis set group =>   2
Atom   2C    basis set group =>   2
Atom   3C    basis set group =>   2
Atom   4C    basis set group =>   2
Atom   5C    basis set group =>   2
Atom   6C    basis set group =>   2
Atom   7N    basis set group =>   1
Atom   8N    basis set group =>   1
Atom   9N    basis set group =>   1
Atom  10Na   basis set group =>   3
Atom  11H    basis set group =>   4
Atom  12H    basis set group =>   4
Atom  13H    basis set group =>   4
Atom  14H    basis set group =>   4
Atom  15H    basis set group =>   4
Atom  16H    basis set group =>   4
Atom  17H    basis set group =>   4
Atom  18H    basis set group =>   4
Atom  19H    basis set group =>   4
Atom  20H    basis set group =>   4
Atom  21H    basis set group =>   4
Atom  22H    basis set group =>   4
Atom  23C    basis set group =>   2
Atom  24C    basis set group =>   2
Atom  25C    basis set group =>   2
Atom  26C    basis set group =>   2
Atom  27C    basis set group =>   2
Atom  28C    basis set group =>   2
Atom  29C    basis set group =>   2
Atom  30C    basis set group =>   2
Atom  31C    basis set group =>   2
Atom  32C    basis set group =>   2
Atom  33C    basis set group =>   2
Atom  34C    basis set group =>   2
Atom  35C    basis set group =>   2
Atom  36N    basis set group =>   1
Atom  37C    basis set group =>   2
Atom  38C    basis set group =>   2
Atom  39C    basis set group =>   2
Atom  40C    basis set group =>   2
Atom  41C    basis set group =>   2
Atom  42N    basis set group =>   1
Atom  43C    basis set group =>   2
Atom  44C    basis set group =>   2
Atom  45C    basis set group =>   2
Atom  46C    basis set group =>   2
Atom  47C    basis set group =>   2
Atom  48C    basis set group =>   2
Atom  49N    basis set group =>   1
Atom  50H    basis set group =>   4
Atom  51H    basis set group =>   4
Atom  52H    basis set group =>   4
Atom  53H    basis set group =>   4
Atom  54H    basis set group =>   4
Atom  55H    basis set group =>   4
Atom  56H    basis set group =>   4
Atom  57H    basis set group =>   4
Atom  58H    basis set group =>   4
Atom  59H    basis set group =>   4
Atom  60N    basis set group =>   1
Atom  61C    basis set group =>   2
Atom  62C    basis set group =>   2
Atom  63C    basis set group =>   2
Atom  64C    basis set group =>   2
Atom  65C    basis set group =>   2
Atom  66C    basis set group =>   2
Atom  67N    basis set group =>   1
Atom  68N    basis set group =>   1
Atom  69N    basis set group =>   1
Atom  70Na   basis set group =>   3
Atom  71H    basis set group =>   4
Atom  72H    basis set group =>   4
Atom  73H    basis set group =>   4
[...]
165 H      0.8363     1.0000     0.1637     0.9684     0.9684     0.0000
166 H      0.8366     1.0000     0.1634     0.9685     0.9685    -0.0000
167 H      0.8367     1.0000     0.1633     0.9686     0.9686    -0.0000
168 C      6.2642     6.0000    -0.2642     4.0285     4.0285    -0.0000
169 C      6.2641     6.0000    -0.2641     4.0298     4.0298    -0.0000
170 C      6.2663     6.0000    -0.2663     4.0311     4.0311    -0.0000
171 C      5.8358     6.0000     0.1642     3.5069     3.5069     0.0000
172 C      6.2611     6.0000    -0.2611     3.7913     3.7913    -0.0000
173 C      5.8383     6.0000     0.1617     3.5102     3.5102    -0.0000
174 C      6.2612     6.0000    -0.2612     3.7951     3.7951    -0.0000
175 C      5.8369     6.0000     0.1631     3.5058     3.5058    -0.0000
176 C      6.2584     6.0000    -0.2584     3.7908     3.7908     0.0000
177 C      5.9180     6.0000     0.0820     3.3544     3.3544    -0.0000
178 C      6.2223     6.0000    -0.2223     3.8076     3.8076     0.0000
179 C      6.2174     6.0000    -0.2174     3.8123     3.8123    -0.0000
180 C      5.6667     6.0000     0.3333     3.5716     3.5716    -0.0000
181 N      7.1798     7.0000    -0.1798     2.9650     2.9650     0.0000
182 C      6.1377     6.0000    -0.1377     3.9522     3.9522    -0.0000
183 C      5.9197     6.0000     0.0803     3.3595     3.3595     0.0000
184 C      6.2212     6.0000    -0.2212     3.8065     3.8065     0.0000
185 C      6.2192     6.0000    -0.2192     3.8137     3.8137     0.0000
186 C      5.6665     6.0000     0.3335     3.5717     3.5717    -0.0000
187 N      7.1782     7.0000    -0.1782     2.9625     2.9625    -0.0000
188 C      6.1351     6.0000    -0.1351     3.9535     3.9535    -0.0000
189 C      5.9160     6.0000     0.0840     3.3498     3.3498    -0.0000
190 C      6.1395     6.0000    -0.1395     3.9526     3.9526    -0.0000
191 C      6.2230     6.0000    -0.2230     3.8082     3.8082     0.0000
192 C      6.2174     6.0000    -0.2174     3.8114     3.8114     0.0000
193 C      5.6680     6.0000     0.3320     3.5733     3.5733     0.0000
194 N      7.1759     7.0000    -0.1759     2.9621     2.9621    -0.0000
195 H      0.8050     1.0000     0.1950     0.9534     0.9534     0.0000
196 H      0.8018     1.0000     0.1982     0.9524     0.9524    -0.0000
197 H      0.8303     1.0000     0.1697     0.9597     0.9597    -0.0000
198 H      0.8051     1.0000     0.1949     0.9534     0.9534    -0.0000
199 H      0.8018     1.0000     0.1982     0.9524     0.9524     0.0000
200 H      0.8300     1.0000     0.1700     0.9597     0.9597    -0.0000
201 H      0.8304     1.0000     0.1696     0.9598     0.9598     0.0000
202 H      0.8049     1.0000     0.1951     0.9533     0.9533    -0.0000
203 H      0.8020     1.0000     0.1980     0.9525     0.9525    -0.0000
204 H      0.8364     1.0000     0.1636     0.9685     0.9685    -0.0000
205 H      0.8366     1.0000     0.1634     0.9686     0.9686    -0.0000
206 C      6.2652     6.0000    -0.2652     4.0301     4.0301     0.0000
207 C      6.2669     6.0000    -0.2669     4.0323     4.0323    -0.0000
208 C      6.2630     6.0000    -0.2630     4.0281     4.0281    -0.0000
209 C      5.8390     6.0000     0.1610     3.5085     3.5085     0.0000
210 C      6.2606     6.0000    -0.2606     3.7932     3.7932    -0.0000
211 C      5.8373     6.0000     0.1627     3.5075     3.5075     0.0000
212 C      6.2588     6.0000    -0.2588     3.7886     3.7886    -0.0000
213 C      5.8378     6.0000     0.1622     3.5095     3.5095    -0.0000
214 C      6.2588     6.0000    -0.2588     3.7930     3.7930    -0.0000
215 C      5.9136     6.0000     0.0864     3.3483     3.3483    -0.0000
216 C      6.2222     6.0000    -0.2222     3.8080     3.8080    -0.0000
217 C      6.2184     6.0000    -0.2184     3.8129     3.8129     0.0000
218 C      5.6663     6.0000     0.3337     3.5707     3.5707     0.0000
219 N      7.1798     7.0000    -0.1798     2.9672     2.9672    -0.0000
220 C      6.1389     6.0000    -0.1389     3.9512     3.9512    -0.0000
221 C      5.9172     6.0000     0.0828     3.3536     3.3536     0.0000
222 C      6.2211     6.0000    -0.2211     3.8065     3.8065     0.0000
223 C      6.2190     6.0000    -0.2190     3.8140     3.8140     0.0000
224 C      5.6666     6.0000     0.3334     3.5752     3.5752    -0.0000
225 N      7.1786     7.0000    -0.1786     2.9649     2.9649    -0.0000
226 C      6.1382     6.0000    -0.1382     3.9541     3.9541     0.0000
227 C      5.9180     6.0000     0.0820     3.3530     3.3530    -0.0000
228 C      6.1376     6.0000    -0.1376     3.9555     3.9555    -0.0000
229 C      6.2224     6.0000    -0.2224     3.8069     3.8069     0.0000
230 C      6.2184     6.0000    -0.2184     3.8124     3.8124     0.0000
231 C      5.6697     6.0000     0.3303     3.5765     3.5765    -0.0000
232 N      7.1761     7.0000    -0.1761     2.9619     2.9619     0.0000
233 H      0.8048     1.0000     0.1952     0.9533     0.9533    -0.0000
234 H      0.8019     1.0000     0.1981     0.9525     0.9525     0.0000
235 H      0.8048     1.0000     0.1952     0.9533     0.9533    -0.0000
236 H      0.8018     1.0000     0.1982     0.9524     0.9524    -0.0000
237 H      0.8303     1.0000     0.1697     0.9597     0.9597     0.0000
238 H      0.8303     1.0000     0.1697     0.9598     0.9598    -0.0000
239 H      0.8050     1.0000     0.1950     0.9534     0.9534    -0.0000
240 H      0.8020     1.0000     0.1980     0.9525     0.9525     0.0000
241 H      0.8364     1.0000     0.1636     0.9685     0.9685     0.0000
242 H      0.8363     1.0000     0.1637     0.9684     0.9684    -0.0000
243 H      0.8366     1.0000     0.1634     0.9685     0.9685    -0.0000
244 H      0.8139     1.0000     0.1861     0.9567     0.9567    -0.0000
245 H      0.8134     1.0000     0.1866     0.9565     0.9565    -0.0000
246 H      0.8137     1.0000     0.1863     0.9566     0.9566    -0.0000
247 H      0.8136     1.0000     0.1864     0.9567     0.9567    -0.0000
248 H      0.8132     1.0000     0.1868     0.9565     0.9565     0.0000
249 H      0.8134     1.0000     0.1866     0.9566     0.9566     0.0000
250 H      0.8136     1.0000     0.1864     0.9566     0.9566    -0.0000
251 H      0.8133     1.0000     0.1867     0.9565     0.9565    -0.0000
252 H      0.8135     1.0000     0.1865     0.9566     0.9566     0.0000
253 H      0.8138     1.0000     0.1862     0.9568     0.9568    -0.0000
254 H      0.8134     1.0000     0.1866     0.9566     0.9566    -0.0000
255 H      0.8135     1.0000     0.1865     0.9566     0.9566     0.0000
256 H      0.8367     1.0000     0.1633     0.9686     0.9686    -0.0000
257 H      0.8365     1.0000     0.1635     0.9685     0.9685    -0.0000
258 H      0.8303     1.0000     0.1697     0.9597     0.9597     0.0000
259 H      0.8367     1.0000     0.1633     0.9686     0.9686    -0.0000
260 H      0.7016     1.0000     0.2984     0.9663     0.9663    -0.0000
261 H      0.7020     1.0000     0.2980     0.9672     0.9672     0.0000
262 H      0.6996     1.0000     0.3004     0.9648     0.9648    -0.0000
263 H      0.7014     1.0000     0.2986     0.9663     0.9663    -0.0000

  Mayer bond orders larger than 0.100000
B(  0-N ,  1-C ) :   0.8845 B(  0-N ,  3-C ) :   0.8843 B(  0-N ,  5-C ) :   0.8836 
B(  0-N ,260-H ) :   0.8193 B(  1-C ,  2-C ) :   0.9107 B(  1-C , 11-H ) :   0.9336 
B(  1-C , 12-H ) :   0.9269 B(  2-C ,  7-N ) :   0.8365 B(  2-C , 13-H ) :   0.9366 
B(  2-C , 14-H ) :   0.9399 B(  3-C ,  4-C ) :   0.9115 B(  3-C , 15-H ) :   0.9341 
B(  3-C , 16-H ) :   0.9263 B(  4-C ,  8-N ) :   0.8366 B(  4-C , 17-H ) :   0.9363 
B(  4-C , 18-H ) :   0.9406 B(  5-C ,  6-C ) :   0.9110 B(  5-C , 19-H ) :   0.9335 
B(  5-C , 20-H ) :   0.9270 B(  6-C ,  9-N ) :   0.8369 B(  6-C , 21-H ) :   0.9369 
B(  6-C , 22-H ) :   0.9408 B(  7-N , 23-C ) :   1.9761 B(  7-N , 41-C ) :  -0.1521 
B(  8-N ,129-C ) :   1.9803 B(  8-N ,147-C ) :  -0.1541 B(  9-N ,168-C ) :   1.9744 
B(  9-N ,186-C ) :  -0.1514 B( 23-C , 41-C ) :   0.9783 B( 23-C , 59-H ) :   0.9052 
B( 24-C , 35-C ) :   0.9779 B( 24-C , 69-N ) :   1.9750 B( 24-C ,256-H ) :   0.9057 
B( 25-C , 48-C ) :   0.9764 B( 25-C , 90-N ) :   1.9736 B( 25-C ,243-H ) :   0.9070 
B( 26-C , 27-C ) :   1.3921 B( 26-C , 31-C ) :   1.3520 B( 26-C , 32-C ) :   0.7502 
B( 27-C , 28-C ) :   1.3527 B( 27-C ,244-H ) :   0.9185 B( 28-C , 29-C ) :   1.3893 
B( 28-C , 38-C ) :   0.7503 B( 29-C , 30-C ) :   1.3516 B( 29-C ,245-H ) :   0.9186 
B( 30-C , 31-C ) :   1.3913 B( 30-C , 44-C ) :   0.7500 B( 31-C ,246-H ) :   0.9184 
B( 32-C , 33-C ) :   1.3309 B( 32-C , 37-C ) :   1.3169 B( 33-C , 34-C ) :   1.3915 
B( 33-C , 50-H ) :   0.9488 B( 34-C , 35-C ) :   1.3768 B( 34-C , 51-H ) :   0.9125 
B( 35-C , 36-N ) :   1.2143 B( 35-C , 69-N ) :  -0.1524 B( 36-N , 37-C ) :   1.4666 
B( 37-C , 52-H ) :   0.9405 B( 38-C , 39-C ) :   1.3297 B( 38-C , 43-C ) :   1.3168 
B( 39-C , 40-C ) :   1.3918 B( 39-C , 53-H ) :   0.9490 B( 40-C , 41-C ) :   1.3778 
B( 40-C , 54-H ) :   0.9123 B( 41-C , 42-N ) :   1.2138 B( 42-N , 43-C ) :   1.4681 
B( 43-C , 55-H ) :   0.9409 B( 44-C , 45-C ) :   1.3186 B( 44-C , 46-C ) :   1.3307 
B( 45-C , 49-N ) :   1.4667 B( 45-C , 56-H ) :   0.9399 B( 46-C , 47-C ) :   1.3910 
B( 46-C , 57-H ) :   0.9489 B( 47-C , 48-C ) :   1.3768 B( 47-C , 58-H ) :   0.9129 
B( 48-C , 49-N ) :   1.2115 B( 48-C , 90-N ) :  -0.1520 B( 60-N , 61-C ) :   0.8836 
B( 60-N , 63-C ) :   0.8829 B( 60-N , 65-C ) :   0.8839 B( 60-N ,261-H ) :   0.8191 
B( 61-C , 62-C ) :   0.9113 B( 61-C , 71-H ) :   0.9343 B( 61-C , 72-H ) :   0.9261 
B( 62-C , 67-N ) :   0.8376 B( 62-C , 73-H ) :   0.9368 B( 62-C , 74-H ) :   0.9408 
B( 63-C , 64-C ) :   0.9098 B( 63-C , 75-H ) :   0.9341 B( 63-C , 76-H ) :   0.9272 
B( 64-C , 68-N ) :   0.8368 B( 64-C , 77-H ) :   0.9370 B( 64-C , 78-H ) :   0.9406 
B( 65-C , 66-C ) :   0.9110 B( 65-C , 79-H ) :   0.9344 B( 65-C , 80-H ) :   0.9266 
B( 66-C , 69-N ) :   0.8366 B( 66-C , 81-H ) :   0.9401 B( 66-C , 82-H ) :   0.9369 
B( 67-N ,170-C ) :   1.9800 B( 67-N ,193-C ) :  -0.1538 B( 68-N ,208-C ) :   1.9747 
B( 68-N ,231-C ) :  -0.1517 B( 83-N , 84-C ) :   0.8839 B( 83-N , 86-C ) :   0.8839 
B( 83-N , 88-C ) :   0.8834 B( 83-N ,263-H ) :   0.8194 B( 84-C , 85-C ) :   0.9116 
B( 84-C , 94-H ) :   0.9341 B( 84-C , 95-H ) :   0.9268 B( 85-C , 90-N ) :   0.8372 
B( 85-C , 96-H ) :   0.9371 B( 85-C , 97-H ) :   0.9400 B( 86-C , 87-C ) :   0.9116 
B( 86-C , 98-H ) :   0.9344 B( 86-C , 99-H ) :   0.9263 B( 87-C , 91-N ) :   0.8355 
B( 87-C ,100-H ) :   0.9370 B( 87-C ,101-H ) :   0.9403 B( 88-C , 89-C ) :   0.9106 
B( 88-C ,102-H ) :   0.9343 B( 88-C ,103-H ) :   0.9267 B( 89-C , 92-N ) :   0.8373 
B( 89-C ,104-H ) :   0.9413 B( 89-C ,105-H ) :   0.9368 B( 91-N ,207-C ) :   1.9805 
B( 91-N ,218-C ) :  -0.1536 B( 92-N ,131-C ) :   1.9777 B( 92-N ,154-C ) :  -0.1521 
B(106-N ,107-C ) :   0.8837 B(106-N ,109-C ) :   0.8841 B(106-N ,111-C ) :   0.8841 
B(106-N ,262-H ) :   0.8186 B(107-C ,108-C ) :   0.9098 B(107-C ,117-H ) :   0.9339 
B(107-C ,118-H ) :   0.9269 B(108-C ,113-N ) :   0.8349 B(108-C ,119-H ) :   0.9366 
B(108-C ,120-H ) :   0.9413 B(109-C ,110-C ) :   0.9115 B(109-C ,121-H ) :   0.9342 
B(109-C ,122-H ) :   0.9265 B(110-C ,114-N ) :   0.8349 B(110-C ,123-H ) :   0.9367 
B(110-C ,124-H ) :   0.9402 B(111-C ,112-C ) :   0.9121 B(111-C ,125-H ) :   0.9339 
B(111-C ,126-H ) :   0.9266 B(112-C ,115-N ) :   0.8352 B(112-C ,127-H ) :   0.9405 
B(112-C ,128-H ) :   0.9368 B(113-N ,206-C ) :   1.9776 B(113-N ,224-C ) :  -0.1521 
B(114-N ,169-C ) :   1.9771 B(114-N ,180-C ) :  -0.1524 B(115-N ,130-C ) :   1.9753 
B(115-N ,141-C ) :  -0.1515 B(129-C ,147-C ) :   0.9794 B(129-C ,165-H ) :   0.9047 
B(130-C ,141-C ) :   0.9783 B(130-C ,166-H ) :   0.9058 B(131-C ,154-C ) :   0.9787 
B(131-C ,167-H ) :   0.9052 B(132-C ,133-C ) :   1.3551 B(132-C ,137-C ) :   1.3903 
B(132-C ,138-C ) :   0.7503 B(133-C ,134-C ) :   1.3910 B(133-C ,247-H ) :   0.9193 
B(134-C ,135-C ) :   1.3524 B(134-C ,144-C ) :   0.7508 B(135-C ,136-C ) :   1.3893 
B(135-C ,248-H ) :   0.9192 B(136-C ,137-C ) :   1.3527 B(136-C ,150-C ) :   0.7501 
B(137-C ,249-H ) :   0.9194 B(138-C ,139-C ) :   1.3298 B(138-C ,143-C ) :   1.3177 
B(139-C ,140-C ) :   1.3904 B(139-C ,156-H ) :   0.9492 B(140-C ,141-C ) :   1.3780 
B(140-C ,157-H ) :   0.9125 B(141-C ,142-N ) :   1.2129 B(142-N ,143-C ) :   1.4667 
B(143-C ,158-H ) :   0.9422 B(144-C ,145-C ) :   1.3315 B(144-C ,149-C ) :   1.3140 
B(145-C ,146-C ) :   1.3900 B(145-C ,159-H ) :   0.9489 B(146-C ,147-C ) :   1.3784 
B(146-C ,160-H ) :   0.9124 B(147-C ,148-N ) :   1.2145 B(148-N ,149-C ) :   1.4696 
B(149-C ,161-H ) :   0.9417 B(150-C ,151-C ) :   1.3184 B(150-C ,152-C ) :   1.3303 
B(151-C ,155-N ) :   1.4683 B(151-C ,162-H ) :   0.9413 B(152-C ,153-C ) :   1.3897 
B(152-C ,163-H ) :   0.9493 B(153-C ,154-C ) :   1.3792 B(153-C ,164-H ) :   0.9120 
B(154-C ,155-N ) :   1.2135 B(168-C ,186-C ) :   0.9786 B(168-C ,204-H ) :   0.9060 
B(169-C ,180-C ) :   0.9782 B(169-C ,259-H ) :   0.9052 B(170-C ,193-C ) :   0.9779 
B(170-C ,205-H ) :   0.9047 B(171-C ,172-C ) :   1.3891 B(171-C ,176-C ) :   1.3538 
B(171-C ,177-C ) :   0.7506 B(172-C ,173-C ) :   1.3525 B(172-C ,250-H ) :   0.9198 
B(173-C ,174-C ) :   1.3922 B(173-C ,183-C ) :   0.7505 B(174-C ,175-C ) :   1.3537 
B(174-C ,251-H ) :   0.9189 B(175-C ,176-C ) :   1.3885 B(175-C ,189-C ) :   0.7495 
B(176-C ,252-H ) :   0.9191 B(177-C ,178-C ) :   1.3300 B(177-C ,182-C ) :   1.3166 
B(178-C ,179-C ) :   1.3899 B(178-C ,195-H ) :   0.9495 B(179-C ,180-C ) :   1.3780 
B(179-C ,196-H ) :   0.9123 B(180-C ,181-N ) :   1.2132 B(181-N ,182-C ) :   1.4686 
B(182-C ,197-H ) :   0.9418 B(183-C ,184-C ) :   1.3300 B(183-C ,188-C ) :   1.3199 
B(184-C ,185-C ) :   1.3903 B(184-C ,198-H ) :   0.9492 B(185-C ,186-C ) :   1.3778 
B(185-C ,199-H ) :   0.9127 B(186-C ,187-N ) :   1.2130 B(187-N ,188-C ) :   1.4657 
B(188-C ,200-H ) :   0.9413 B(189-C ,190-C ) :   1.3159 B(189-C ,191-C ) :   1.3294 
B(190-C ,194-N ) :   1.4677 B(190-C ,201-H ) :   0.9417 B(191-C ,192-C ) :   1.3907 
B(191-C ,202-H ) :   0.9491 B(192-C ,193-C ) :   1.3778 B(192-C ,203-H ) :   0.9123 
B(193-C ,194-N ) :   1.2156 B(206-C ,224-C ) :   0.9792 B(206-C ,241-H ) :   0.9044 
B(207-C ,218-C ) :   0.9774 B(207-C ,257-H ) :   0.9052 B(208-C ,231-C ) :   0.9799 
B(208-C ,242-H ) :   0.9049 B(209-C ,210-C ) :   1.3893 B(209-C ,214-C ) :   1.3539 
B(209-C ,215-C ) :   0.7514 B(210-C ,211-C ) :   1.3560 B(210-C ,253-H ) :   0.9193 
B(211-C ,212-C ) :   1.3871 B(211-C ,221-C ) :   0.7496 B(212-C ,213-C ) :   1.3530 
B(212-C ,254-H ) :   0.9195 B(213-C ,214-C ) :   1.3911 B(213-C ,227-C ) :   0.7496 
B(214-C ,255-H ) :   0.9187 B(215-C ,216-C ) :   1.3297 B(215-C ,220-C ) :   1.3136 
B(216-C ,217-C ) :   1.3905 B(216-C ,233-H ) :   0.9493 B(217-C ,218-C ) :   1.3779 
B(217-C ,234-H ) :   0.9125 B(218-C ,219-N ) :   1.2145 B(219-N ,220-C ) :   1.4698 
B(220-C ,258-H ) :   0.9424 B(221-C ,222-C ) :   1.3282 B(221-C ,226-C ) :   1.3184 
B(222-C ,223-C ) :   1.3903 B(222-C ,235-H ) :   0.9495 B(223-C ,224-C ) :   1.3790 
B(223-C ,236-H ) :   0.9123 B(224-C ,225-N ) :   1.2135 B(225-N ,226-C ) :   1.4684 
B(226-C ,237-H ) :   0.9424 B(227-C ,228-C ) :   1.3179 B(227-C ,229-C ) :   1.3294 
B(228-C ,232-N ) :   1.4676 B(228-C ,238-H ) :   0.9406 B(229-C ,230-C ) :   1.3905 
B(229-C ,239-H ) :   0.9493 B(230-C ,231-C ) :   1.3779 B(230-C ,240-H ) :   0.9127 
B(231-C ,232-N ) :   1.2144 

-------
TIMINGS
-------

Total SCF time: 0 days 0 hours 33 min 3 sec 

Total time                  ....    1983.036 sec
Sum of individual times     ....    1933.407 sec  ( 97.5%)

Fock matrix formation       ....    1669.094 sec  ( 84.2%)
  Split-RI-J                ....     454.649 sec  ( 27.2% of F)
  XC integration            ....     441.575 sec  ( 26.5% of F)
    Basis function eval.    ....      69.282 sec  ( 15.7% of XC)
    Density eval.           ....     194.948 sec  ( 44.1% of XC)
    XC-Functional eval.     ....      23.450 sec  (  5.3% of XC)
    XC-Potential eval.      ....     115.005 sec  ( 26.0% of XC)
Diagonalization             ....      25.425 sec  (  1.3%)
Density matrix formation    ....       7.900 sec  (  0.4%)
Population analysis         ....       7.010 sec  (  0.4%)
Initial guess               ....      27.911 sec  (  1.4%)
Orbital Transformation      ....       0.000 sec  (  0.0%)
Orbital Orthonormalization  ....       0.000 sec  (  0.0%)
DIIS solution               ....      13.989 sec  (  0.7%)
SOSCF solution              ....      35.405 sec  (  1.8%)
Grid generation             ....     146.672 sec  (  7.4%)

Maximum memory used throughout the entire SCF-calculation: 4573.2 MB


-------------------------------------------------------------------------------
                          DFT DISPERSION CORRECTION                            
                                                                               
                                 DFTD4 V2.5                                    
-------------------------------------------------------------------------------
The R2SCAN3C composite method is recognized
Using three-body term ABC
Active option DFTDOPT                   ...         5   

Starting D4
-------------------------   ----------------
Dispersion correction           -0.165900783
-------------------------   ----------------

------------------   -----------------
gCP correction             0.169168280
------------------   -----------------

-------------------------   --------------------
FINAL SINGLE POINT ENERGY     -6820.136639221541
-------------------------   --------------------


                            ***************************************
                            *     ORCA property calculations      *
                            ***************************************

                                    ---------------------
                                    Active property flags
                                    ---------------------
   (+) Dipole Moment


------------------------------------------------------------------------------
                       ORCA ELECTRIC PROPERTIES CALCULATION
------------------------------------------------------------------------------

Dipole Moment Calculation                       ... on
Quadrupole Moment Calculation                   ... off
Polarizability Calculation                      ... off
GBWName                                         ... ORCA.gbw
Electron density                                ... ORCA.scfp
The origin for moment calculation is the CENTER OF MASS  = ( 3.481717,  3.496776  1.150870)

-------------
DIPOLE MOMENT
-------------
                                X             Y             Z
Electronic contribution:     -0.53966       0.11148      -0.24329
Nuclear contribution   :      0.62942      -0.17431       0.27518
                        -----------------------------------------
Total Dipole Moment    :      0.08976      -0.06282       0.03189
                        -----------------------------------------
Magnitude (a.u.)       :      0.11411
Magnitude (Debye)      :      0.29004



--------------------
Rotational spectrum 
--------------------
 
Rotational constants in cm-1:     0.000213     0.000213     0.000212 
Rotational constants in MHz :     6.379983     6.373308     6.355189 

 Dipole components along the rotational axes: 
x,y,z [a.u.] :    -0.036990    -0.075368    -0.077279 
x,y,z [Debye]:    -0.094021    -0.191571    -0.196428 

 

Timings for individual modules:

Sum of individual times         ...     1997.533 sec (=  33.292 min)
GTO integral calculation        ...       13.016 sec (=   0.217 min)   0.7 %
SCF iterations                  ...     1984.517 sec (=  33.075 min)  99.3 %
                             ****ORCA TERMINATED NORMALLY****
TOTAL RUN TIME: 0 days 0 hours 33 minutes 27 seconds 44 msec
