
                                 *****************
                                 * O   R   C   A *
                                 *****************

                                            #,                                       
                                            ###                                      
                                            ####                                     
                                            #####                                    
                                            ######                                   
                                           ########,                                 
                                     ,,################,,,,,                         
                               ,,#################################,,                 
                          ,,##########################################,,             
                       ,#########################################, ''#####,          
                    ,#############################################,,   '####,        
                  ,##################################################,,,,####,       
                ,###########''''           ''''###############################       
              ,#####''   ,,,,##########,,,,          '''####'''          '####       
            ,##' ,,,,###########################,,,                        '##       
           ' ,,###''''                  '''############,,,                           
         ,,##''                                '''############,,,,        ,,,,,,###''
      ,#''                                            '''#######################'''  
     '                                                          ''''####''''         
             ,#######,   #######,   ,#######,      ##                                
            ,#'     '#,  ##    ##  ,#'     '#,    #''#        ######   ,####,        
            ##       ##  ##   ,#'  ##            #'  '#       #        #'  '#        
            ##       ##  #######   ##           ,######,      #####,   #    #        
            '#,     ,#'  ##    ##  '#,     ,#' ,#      #,         ##   #,  ,#        
             '#######'   ##     ##  '#######'  #'      '#     #####' # '####'        



                  #######################################################
                  #                        -***-                        #
                  #          Department of theory and spectroscopy      #
                  #    Directorship and core code : Frank Neese         #
                  #        Max Planck Institute fuer Kohlenforschung    #
                  #                Kaiser Wilhelm Platz 1               #
                  #                 D-45470 Muelheim/Ruhr               #
                  #                      Germany                        #
                  #                                                     #
                  #                  All rights reserved                #
                  #                        -***-                        #
                  #######################################################


                         Program Version 5.0.4 -  RELEASE  -


 With contributions from (in alphabetic order):
   Daniel Aravena         : Magnetic Suceptibility
   Michael Atanasov       : Ab Initio Ligand Field Theory (pilot matlab implementation)
   Alexander A. Auer      : GIAO ZORA, VPT2 properties, NMR spectrum
   Ute Becker             : Parallelization
   Giovanni Bistoni       : ED, misc. LED, open-shell LED, HFLD
   Martin Brehm           : Molecular dynamics
   Dmytro Bykov           : SCF Hessian
   Vijay G. Chilkuri      : MRCI spin determinant printing, contributions to CSF-ICE
   Dipayan Datta          : RHF DLPNO-CCSD density
   Achintya Kumar Dutta   : EOM-CC, STEOM-CC
   Dmitry Ganyushin       : Spin-Orbit,Spin-Spin,Magnetic field MRCI
   Miquel Garcia          : C-PCM and meta-GGA Hessian, CC/C-PCM, Gaussian charge scheme
   Yang Guo               : DLPNO-NEVPT2, F12-NEVPT2, CIM, IAO-localization
   Andreas Hansen         : Spin unrestricted coupled pair/coupled cluster methods
   Benjamin Helmich-Paris : MC-RPA, TRAH-SCF, COSX integrals
   Lee Huntington         : MR-EOM, pCC
   Robert Izsak           : Overlap fitted RIJCOSX, COSX-SCS-MP3, EOM
   Marcus Kettner         : VPT2
   Christian Kollmar      : KDIIS, OOCD, Brueckner-CCSD(T), CCSD density, CASPT2, CASPT2-K
   Simone Kossmann        : Meta GGA functionals, TD-DFT gradient, OOMP2, MP2 Hessian
   Martin Krupicka        : Initial AUTO-CI
   Lucas Lang             : DCDCAS
   Marvin Lechner         : AUTO-CI (C++ implementation), FIC-MRCC
   Dagmar Lenk            : GEPOL surface, SMD
   Dimitrios Liakos       : Extrapolation schemes; Compound Job, initial MDCI parallelization
   Dimitrios Manganas     : Further ROCIS development; embedding schemes
   Dimitrios Pantazis     : SARC Basis sets
   Anastasios Papadopoulos: AUTO-CI, single reference methods and gradients
   Taras Petrenko         : DFT Hessian,TD-DFT gradient, ASA, ECA, R-Raman, ABS, FL, XAS/XES, NRVS
   Peter Pinski           : DLPNO-MP2, DLPNO-MP2 Gradient
   Christoph Reimann      : Effective Core Potentials
   Marius Retegan         : Local ZFS, SOC
   Christoph Riplinger    : Optimizer, TS searches, QM/MM, DLPNO-CCSD(T), (RO)-DLPNO pert. Triples
   Tobias Risthaus        : Range-separated hybrids, TD-DFT gradient, RPA, STAB
   Michael Roemelt        : Original ROCIS implementation
   Masaaki Saitow         : Open-shell DLPNO-CCSD energy and density
   Barbara Sandhoefer     : DKH picture change effects
   Avijit Sen             : IP-ROCIS
   Kantharuban Sivalingam : CASSCF convergence, NEVPT2, FIC-MRCI
   Bernardo de Souza      : ESD, SOC TD-DFT
   Georgi Stoychev        : AutoAux, RI-MP2 NMR, DLPNO-MP2 response
   Willem Van den Heuvel  : Paramagnetic NMR
   Boris Wezisla          : Elementary symmetry handling
   Frank Wennmohs         : Technical directorship


 We gratefully acknowledge several colleagues who have allowed us to
 interface, adapt or use parts of their codes:
   Stefan Grimme, W. Hujo, H. Kruse, P. Pracht,  : VdW corrections, initial TS optimization,
                  C. Bannwarth, S. Ehlert          DFT functionals, gCP, sTDA/sTD-DF
   Ed Valeev, F. Pavosevic, A. Kumar             : LibInt (2-el integral package), F12 methods
   Garnet Chan, S. Sharma, J. Yang, R. Olivares  : DMRG
   Ulf Ekstrom                                   : XCFun DFT Library
   Mihaly Kallay                                 : mrcc  (arbitrary order and MRCC methods)
   Jiri Pittner, Ondrej Demel                    : Mk-CCSD
   Frank Weinhold                                : gennbo (NPA and NBO analysis)
   Christopher J. Cramer and Donald G. Truhlar   : smd solvation model
   Lars Goerigk                                  : TD-DFT with DH, B97 family of functionals
   V. Asgeirsson, H. Jonsson                     : NEB implementation
   FAccTs GmbH                                   : IRC, NEB, NEB-TS, DLPNO-Multilevel, CI-OPT
                                                   MM, QMMM, 2- and 3-layer-ONIOM, Crystal-QMMM,
                                                   LR-CPCM, SF, NACMEs, symmetry and pop. for TD-DFT,
                                                   nearIR, NL-DFT gradient (VV10), updates on ESD,
                                                   ML-optimized integration grids
   S Lehtola, MJT Oliveira, MAL Marques          : LibXC Library
   Liviu Ungur et al                             : ANISO software


 Your calculation uses the libint2 library for the computation of 2-el integrals
 For citations please refer to: http://libint.valeyev.net

 Your ORCA version has been built with support for libXC version: 5.1.0
 For citations please refer to: https://tddft.org/programs/libxc/

 This ORCA versions uses:
   CBLAS   interface :  Fast vector & matrix operations
   LAPACKE interface :  Fast linear algebra routines
   SCALAPACK package :  Parallel linear algebra routines
   Shared memory     :  Shared parallel matrices
   BLAS/LAPACK       :  OpenBLAS 0.3.15  USE64BITINT DYNAMIC_ARCH NO_AFFINITY SkylakeX SINGLE_THREADED
        Core in use  :  SkylakeX
   Copyright (c) 2011-2014, The OpenBLAS Project




***************************************
The coordinates will be read from file: xtbopt.xyz
***************************************


Your calculation utilizes the geometrical counterpoise correction gCP
Please cite in your paper:
H.Kruse, S. Grimme J.Chem.Phys., 136, (2012), 154101 
   

Your calculation utilizes the atom-pairwise dispersion correction
based on tight binding partial charges (D4)
Cite in your paper:
E.Caldeweyher, C.Bannwarth, S.Grimme, J.Chem.Phys., (2017), 147, 034112.
E.Caldeweyher, S.Ehlert, A.Hansen, H.Neugebauer, S.Grimme, J.Chem.Phys., (2018), in progress.
   

Your calculation utilizes the SMD solvation module
Please cite in your paper:
A.V. Marenich, C.J. Cramer, D.G. Truhlar J. Phys. Chem. B, 113, (2009), 6378 

================================================================================

----- Orbital basis set information -----
Your calculation utilizes the basis: def2-mTZVPP
   Stefan Grimme, Andreas Hansen, Sebastian Ehlert, and Jan-Michael Mewes 
   J. Chem. Phys. 154, 000000 (2021). DOI: 10.1063/5.0040021

----- AuxJ basis set information -----
Your calculation utilizes the auxiliary basis: def2/J
   F. Weigend, Phys. Chem. Chem. Phys. 8, 1057 (2006).

================================================================================
                                        WARNINGS
                       Please study these warnings very carefully!
================================================================================

Using LibXC functional ID 497 : Re-regularized SCAN exchange by Furness et al
[ 1]  J. W. Furness, A. D. Kaplan, J. Ning, J. P. Perdew, and J. Sun, J. Phys. Chem. Lett. 11, 8208 (2020)
[ 2]  J. W. Furness, A. D. Kaplan, J. Ning, J. P. Perdew, and J. Sun, J. Phys. Chem. Lett. 11, 9248 (2020)
Using LibXC functional ID 498 : Re-regularized SCAN correlation by Furness et al
[ 1]  J. W. Furness, A. D. Kaplan, J. Ning, J. P. Perdew, and J. Sun, J. Phys. Chem. Lett. 11, 8208 (2020)
[ 2]  J. W. Furness, A. D. Kaplan, J. Ning, J. P. Perdew, and J. Sun, J. Phys. Chem. Lett. 11, 9248 (2020)
Using LibXC functional ID 497 : Re-regularized SCAN exchange by Furness et al
[ 1]  J. W. Furness, A. D. Kaplan, J. Ning, J. P. Perdew, and J. Sun, J. Phys. Chem. Lett. 11, 8208 (2020)
[ 2]  J. W. Furness, A. D. Kaplan, J. Ning, J. P. Perdew, and J. Sun, J. Phys. Chem. Lett. 11, 9248 (2020)
Using LibXC functional ID 498 : Re-regularized SCAN correlation by Furness et al
[ 1]  J. W. Furness, A. D. Kaplan, J. Ning, J. P. Perdew, and J. Sun, J. Phys. Chem. Lett. 11, 8208 (2020)
[ 2]  J. W. Furness, A. D. Kaplan, J. Ning, J. P. Perdew, and J. Sun, J. Phys. Chem. Lett. 11, 9248 (2020)

INFO   : the flag for use of the SHARK integral package has been found!

================================================================================
                                       INPUT FILE
================================================================================
NAME = ORCA.in
|  1> ! r2SCAN-3c ENERGY TightSCF defgrid3 def2/J
|  2> %maxcore 8000
|  3> %PAL NPROCS 10 END
|  4> %CPCM SMD TRUE
|  5>       SMDSOLVENT "MeCN"
|  6> END
|  7> *xyzfile 12 1  xtbopt.xyz
|  8> 
|  9>                          ****END OF INPUT****
================================================================================

                       ****************************
                       * Single Point Calculation *
                       ****************************

---------------------------------
CARTESIAN COORDINATES (ANGSTROEM)
---------------------------------
  N      6.224792    7.890429    8.003590
  C      6.640845    6.938911    9.077812
  C      5.683385    5.740954    9.135742
  C      7.380146    8.580564    7.354258
  C      7.985918    7.696281    6.256116
  C      5.154511    8.835429    8.444039
  C      4.222547    9.173642    7.272940
  N      5.638274    5.092406    7.847708
  N      6.965894    7.346130    5.297699
  N      3.661263    7.957896    6.735908
  Ca     4.898141    6.088031    5.739078
  H      6.669370    7.457658   10.038732
  H      7.650407    6.579680    8.861082
  H      6.024706    5.069402    9.935498
  H      4.666565    6.070196    9.382748
  H      8.130818    8.831508    8.107133
  H      7.028786    9.514411    6.907408
  H      8.824050    8.241831    5.801318
  H      8.381895    6.766809    6.683317
  H      5.608001    9.741413    8.852327
  H      4.571292    8.364292    9.239871
  H      3.454362    9.869543    7.637126
  H      4.776543    9.673961    6.469253
  C      5.909218    3.857452    7.757257
  C      3.720021   -6.102475    1.014895
  C      8.380055    3.910330   -4.249079
  C      5.455099   -0.712057    1.349303
  C      5.426762   -0.087169    2.593876
  C      5.872310    1.225334    2.731238
  C      6.340681    1.915654    1.615472
  C      6.371788    1.296330    0.368114
  C      5.925083   -0.016741    0.237828
  C      5.025328   -2.115007    1.220020
  C      5.766332   -3.029521    0.469449
  C      5.333449   -4.342329    0.396731
  C      4.169525   -4.718485    1.074409
  N      3.449648   -3.837105    1.784249
  C      3.865082   -2.582273    1.853582
  C      5.881690    1.868630    4.056543
  C      6.317276    1.179164    5.189710
  C      6.320119    1.831281    6.410742
  C      5.892384    3.160890    6.478263
  N      5.465038    3.820886    5.391690
  C      5.460366    3.195207    4.225261
  C      6.910456    2.009845   -0.802618
  C      6.279653    1.938997   -2.052892
  C      8.076088    2.772303   -0.708327
  C      8.555454    3.405713   -1.841906
  C      7.864765    3.264510   -3.049698
  N      6.737540    2.543137   -3.138107
  H      6.677758   -2.734701   -0.027806
  H      5.894964   -5.071283   -0.167294
  H      3.234980   -1.906675    2.424248
  H      6.672924    0.162451    5.121674
  H      6.661028    1.322918    7.299676
  H      5.084147    3.768574    3.383505
  H      5.353391    1.385860   -2.175638
  H      8.617109    2.851108    0.222216
  H      9.460657    3.991802   -1.797733
  H      6.176849    3.258164    8.631996
  N      1.424561   -7.750968    3.918502
  C      1.902708   -7.732791    5.333929
  C      2.950760   -6.629802    5.532393
  C     -0.009618   -8.150481    3.792571
  C     -0.925939   -6.942619    4.028366
  C      2.326037   -8.519793    3.008278
  C      2.332228   -7.896821    1.606015
  N      2.394155   -5.356368    5.144712
  N     -0.588872   -5.888032    3.103102
  N      2.729909   -6.512543    1.691744
  Ca     1.572601   -4.723239    2.909397
  H      2.314749   -8.709662    5.596952
  H      1.051828   -7.539837    5.992686
  H      3.272052   -6.648717    6.582831
  H      3.832526   -6.817189    4.907485
  H     -0.233414   -8.949892    4.502595
  H     -0.182018   -8.539148    2.785429
  H     -1.967034   -7.278086    3.925711
  H     -0.797026   -6.552982    5.045645
  H      2.005178   -9.563132    2.966878
  H      3.341282   -8.497513    3.413317
  H      1.329787   -7.932224    1.162020
  H      3.004004   -8.491131    0.971528
  N      7.536276    2.529415   -7.966058
  C      8.752588    3.323791   -7.616990
  C      8.419984    4.371904   -6.546834
  C      7.848052    1.112018   -8.321143
  C      7.975146    0.257438   -7.053210
  C      6.667289    3.206698   -8.975154
  C      5.190681    2.875552   -8.721541
  N      7.857013    3.721733   -5.388176
  N      6.759768    0.350851   -6.281485
  N      4.831315    3.258870   -7.377822
  Ca     5.788650    2.386316   -5.298390
  H      9.151407    3.801213   -8.514901
  H      9.518503    2.647020   -7.229055
  H      9.339028    4.927274   -6.314716
  H      7.680945    5.088591   -6.925387
  H      8.768377    1.072822   -8.908215
  H      7.038736    0.715079   -8.939843
  H      8.205287   -0.772987   -7.356816
  H      8.800457    0.616075   -6.425784
  H      6.964510    2.902607   -9.981261
  H      6.809591    4.287809   -8.896317
  H      5.012744    1.797952   -8.823691
  H      4.589641    3.390900   -9.483229
  N     -7.624129    5.552679   -1.242820
  C     -7.663843    5.822548   -2.711902
  C     -6.280466    6.254185   -3.216624
  C     -8.553311    4.459645   -0.825272
  C     -7.900250    3.088056   -1.041672
  C     -7.771048    6.790021   -0.418315
  C     -6.959649    6.670914    0.878654
  N     -5.308156    5.238577   -2.892903
  N     -6.651214    3.026146   -0.322243
  N     -5.576228    6.410976    0.561991
  Ca    -4.689953    4.473038   -0.652170
  H     -8.410684    6.590515   -2.925751
  H     -7.964763    4.909083   -3.231885
  H     -6.353895    6.440458   -4.296891
  H     -5.966458    7.187785   -2.733827
  H     -9.487644    4.535915   -1.386021
  H     -8.788383    4.580203    0.235631
  H     -8.612323    2.315772   -0.720025
  H     -7.686076    2.925721   -2.105184
  H     -8.827076    6.963568   -0.199593
  H     -7.402965    7.644357   -0.992647
  H     -7.329000    5.838462    1.489972
  H     -7.095256    7.597629    1.453006
  C      7.148868    7.593969    4.068139
  C     -4.674617    7.179337    1.012971
  C      3.859253    4.050508   -7.190899
  C      0.781611    6.359211   -0.306821
  C      1.805396    6.604530    0.605012
  C      3.135383    6.415352    0.236161
  C      3.439150    5.972812   -1.048999
  C      2.419852    5.727265   -1.966221
  C      1.092165    5.918441   -1.591370
  C     -0.621409    6.598000    0.072735
  C     -0.990526    7.735663    0.792783
  C     -2.324429    7.922637    1.112149
  C     -3.266494    6.973795    0.702709
  N     -2.911083    5.875214    0.020325
  C     -1.634858    5.696285   -0.281931
  C      4.213444    6.717319    1.193050
  C      5.359631    7.409157    0.797435
  C      6.332396    7.689395    1.741706
  C      6.141914    7.277616    3.064463
  N      5.048172    6.599316    3.441736
  C      4.120213    6.329824    2.537263
  C      2.750528    5.303539   -3.337679
  C      3.727602    4.328174   -3.582193
  C      2.109128    5.868509   -4.441434
  C      2.469327    5.451068   -5.711122
  C      3.465324    4.480276   -5.856266
  N      4.074379    3.929533   -4.795853
  H     -0.259999    8.477454    1.077386
  H     -2.636454    8.798967    1.659419
  H     -1.400716    4.780736   -0.816674
  H      5.482640    7.749474   -0.219312
  H      7.222265    8.232980    1.463205
  H      3.266506    5.760545    2.892518
  H      4.236606    3.835010   -2.759473
  H      1.361748    6.637598   -4.319352
  H      1.995378    5.879431   -6.581043
  H      8.064469    8.067736    3.703333
  H     -4.910880    8.040076    1.644828
  H      3.275034    4.455566   -8.021949
  C      2.402700    7.831058    6.655769
  C     -6.446002    2.081134    0.497228
  C      2.400397   -4.393634    5.969121
  C     -1.650938    1.838713    3.518895
  C     -1.093670    3.038904    3.954733
  C      0.068987    3.036529    4.721436
  C      0.677566    1.827065    5.049313
  C      0.123261    0.623508    4.620167
  C     -1.038307    0.632868    3.851179
  C     -2.900507    1.848958    2.739396
  C     -3.927370    0.941204    3.004851
  C     -5.090703    1.008651    2.257583
  C     -5.211450    1.985373    1.264037
  N     -4.219749    2.848371    0.998736
  C     -3.105916    2.779202    1.710550
  C      0.634668    4.304521    5.212978
  C     -0.185554    5.304123    5.739119
  C      0.395765    6.470742    6.204899
  C      1.785180    6.616251    6.142043
  N      2.572745    5.661366    5.625473
  C      2.014972    4.547816    5.176794
  C      0.740979   -0.657207    5.004728
  C      0.883929   -1.701362    4.080128
  C      1.196772   -0.877325    6.305669
  C      1.752103   -2.105374    6.621388
  C      1.837664   -3.092626    5.634671
  N      1.411055   -2.877561    4.381459
  H     -3.837215    0.211956    3.795288
  H     -5.902975    0.324612    2.450309
  H     -2.327511    3.485766    1.438521
  H     -1.253988    5.169107    5.810160
  H     -0.215521    7.254672    6.625149
  H      2.695001    3.817544    4.748609
  H      0.574583   -1.572178    3.047396
  H      1.098923   -0.118780    7.067215
  H      2.103441   -2.303905    7.622381
  H      1.719959    8.621627    6.979514
  H      2.818996   -4.495751    6.974256
  C     -4.605262    4.726405   -3.814966
  C      6.144148   -0.707218   -5.952889
  C     -1.491002   -5.394020    2.362307
  C      1.273328   -0.473277   -3.055887
  C      0.382204    0.557146   -3.346896
  C     -0.839014    0.637866   -2.681864
  C     -1.165575   -0.314611   -1.719090
  C     -0.278909   -1.347417   -1.423877
  C      0.941504   -1.421506   -2.091289
  C      2.545577   -0.578466   -3.790248
  C      3.005676   -1.809038   -4.262620
  C      4.197128   -1.853337   -4.965593
  C      4.905506   -0.668382   -5.188041
  N      4.471884    0.511924   -4.721445
  C      3.333408    0.552512   -4.047225
  C     -1.796481    1.706013   -3.017199
  C     -2.047171    2.060712   -4.343896
  C     -2.966849    3.061263   -4.607345
  C     -3.622778    3.686391   -3.542257
  N     -3.375346    3.352831   -2.267020
  C     -2.493716    2.397804   -2.016619
  C     -0.640732   -2.380586   -0.438493
  C      0.290025   -2.848077    0.500320
  C     -1.920085   -2.938709   -0.414735
  C     -2.203379   -3.924244    0.515005
  C     -1.203555   -4.338798    1.400527
  N      0.021561   -3.793167    1.387485
  H      2.436174   -2.713251   -4.111405
  H      4.568807   -2.790394   -5.350960
  H     -1.556514    1.552049   -5.159595
  H     -3.185365    3.346962   -5.624922
  H     -2.315049    2.183137   -0.967405
  H      1.289296   -2.425419    0.548204
  H     -2.675479   -2.633123   -1.122446
  H     -3.181815   -4.378592    0.547287
  H     -4.708149    5.033622   -4.859467
  H     -2.526464   -5.743625    2.401246
  H      9.251360    4.557142   -4.113230
  H      5.081535   -0.628965    3.460484
  H      6.704109    2.925925    1.720623
  H      5.965750   -0.507192   -0.722152
  H      1.566647    6.965208    1.593287
  H      4.469545    5.843385   -1.340995
  H      0.303728    5.746071   -2.307271
  H     -1.576535    3.974221    3.718499
  H      1.567938    1.819095    5.658483
  H     -1.479812   -0.298039    3.531562
  H      0.627108    1.282964   -4.106627
  H     -2.118816   -0.267475   -1.216357
  H      1.623986   -2.229359   -1.878351
  H      4.288376   -6.768373    0.359542
  H      6.506364   -1.699139   -6.237167
  H      3.039241    1.529223   -3.674749
  H     -7.190554    1.300979    0.678691
  H      5.794231    7.304410    7.260018
  H      1.470949   -6.764064    3.593375
  H     -6.666604    5.196670   -1.047643
  H      6.971306    2.482953   -7.094005

----------------------------
CARTESIAN COORDINATES (A.U.)
----------------------------
  NO LB      ZA    FRAG     MASS         X           Y           Z
   0 N     7.0000    0    14.007   11.763152   14.910749   15.124593
   1 C     6.0000    0    12.011   12.549379   13.112641   17.154578
   2 C     6.0000    0    12.011   10.740041   10.848830   17.264051
   3 C     6.0000    0    12.011   13.946454   16.214916   13.897533
   4 C     6.0000    0    12.011   15.091197   14.543864   11.822346
   5 C     6.0000    0    12.011    9.740615   16.696542   15.956921
   6 C     6.0000    0    12.011    7.979457   17.335671   13.743865
   7 N     7.0000    0    14.007   10.654793    9.623254   14.830020
   8 N     7.0000    0    14.007   13.163631   13.882174   10.011199
   9 N     7.0000    0    14.007    6.918784   15.038245   12.729021
  10 Ca   20.0000    0    40.080    9.256145   11.504711   10.845285
  11 H     1.0000    0     1.008   12.603283   14.092932   18.970454
  12 H     1.0000    0     1.008   14.457174   12.433793   16.745018
  13 H     1.0000    0     1.008   11.385044    9.579781   18.775370
  14 H     1.0000    0     1.008    8.818530   11.471008   17.730824
  15 H     1.0000    0     1.008   15.365018   16.689132   15.320261
  16 H     1.0000    0     1.008   13.282480   17.979632   13.053110
  17 H     1.0000    0     1.008   16.675037   15.574803   10.962902
  18 H     1.0000    0     1.008   15.839487   12.787416   12.629638
  19 H     1.0000    0     1.008   10.597587   18.408602   16.728474
  20 H     1.0000    0     1.008    8.638490   15.806221   17.460825
  21 H     1.0000    0     1.008    6.527798   18.650734   14.432077
  22 H     1.0000    0     1.008    9.026359   18.281137   12.225117
  23 C     6.0000    0    12.011   11.166804    7.289528   14.659092
  24 C     6.0000    0    12.011    7.029821  -11.532006    1.917874
  25 C     6.0000    0    12.011   15.836008    7.389453   -8.029596
  26 C     6.0000    0    12.011   10.308643   -1.345594    2.549813
  27 C     6.0000    0    12.011   10.255094   -0.164725    4.901716
  28 C     6.0000    0    12.011   11.097057    2.315545    5.161293
  29 C     6.0000    0    12.011   11.982150    3.620062    3.052800
  30 C     6.0000    0    12.011   12.040935    2.449709    0.695634
  31 C     6.0000    0    12.011   11.196785   -0.031635    0.449431
  32 C     6.0000    0    12.011    9.496493   -3.996784    2.305503
  33 C     6.0000    0    12.011   10.896788   -5.724965    0.887130
  34 C     6.0000    0    12.011   10.078757   -8.205813    0.749714
  35 C     6.0000    0    12.011    7.879260   -8.916644    2.030338
  36 N     7.0000    0    14.007    6.518891   -7.251078    3.371743
  37 C     6.0000    0    12.011    7.303946   -4.879788    3.502763
  38 C     6.0000    0    12.011   11.114784    3.531200    7.665755
  39 C     6.0000    0    12.011   11.937922    2.228296    9.807131
  40 C     6.0000    0    12.011   11.943294    3.460619   12.114547
  41 C     6.0000    0    12.011   11.134991    5.973216   12.242143
  42 N     7.0000    0    14.007   10.327425    7.220429   10.188818
  43 C     6.0000    0    12.011   10.318597    6.038066    7.984586
  44 C     6.0000    0    12.011   13.058869    3.798057   -1.516729
  45 C     6.0000    0    12.011   11.866824    3.664174   -3.879404
  46 C     6.0000    0    12.011   15.261594    5.238893   -1.338545
  47 C     6.0000    0    12.011   16.167465    6.435866   -3.480698
  48 C     6.0000    0    12.011   14.862252    6.169030   -5.763094
  49 N     7.0000    0    14.007   12.732105    4.805832   -5.930164
  50 H     1.0000    0     1.008   12.619134   -5.167835   -0.052546
  51 H     1.0000    0     1.008   11.139868   -9.583337   -0.316140
  52 H     1.0000    0     1.008    6.113226   -3.603094    4.581165
  53 H     1.0000    0     1.008   12.609998    0.306987    9.678561
  54 H     1.0000    0     1.008   12.587519    2.499952   13.794388
  55 H     1.0000    0     1.008    9.607645    7.121574    6.393897
  56 H     1.0000    0     1.008   10.116442    2.618895   -4.111360
  57 H     1.0000    0     1.008   16.283977    5.387814    0.419928
  58 H     1.0000    0     1.008   17.878051    7.543413   -3.397222
  59 H     1.0000    0     1.008   11.672552    6.157039   16.312108
  60 N     7.0000    0    14.007    2.692031  -14.647208    7.404895
  61 C     6.0000    0    12.011    3.595598  -14.612857   10.079665
  62 C     6.0000    0    12.011    5.576127  -12.528510   10.454707
  63 C     6.0000    0    12.011   -0.018176  -15.402176    7.166920
  64 C     6.0000    0    12.011   -1.749771  -13.119648    7.612508
  65 C     6.0000    0    12.011    4.395573  -16.100075    5.684821
  66 C     6.0000    0    12.011    4.407273  -14.922830    3.034928
  67 N     7.0000    0    14.007    4.524297  -10.122068    9.722097
  68 N     7.0000    0    14.007   -1.112806  -11.126769    5.864013
  69 N     7.0000    0    14.007    5.158781  -12.306923    3.196934
  70 Ca   20.0000    0    40.080    2.971786   -8.925628    5.497963
  71 H     1.0000    0     1.008    4.374241  -16.458877   10.576707
  72 H     1.0000    0     1.008    1.987668  -14.248228   11.324536
  73 H     1.0000    0     1.008    6.183281  -12.564254   12.439748
  74 H     1.0000    0     1.008    7.242425  -12.882620    9.273802
  75 H     1.0000    0     1.008   -0.441089  -16.912844    8.508671
  76 H     1.0000    0     1.008   -0.343963  -16.136652    5.263698
  77 H     1.0000    0     1.008   -3.717156  -13.753590    7.418518
  78 H     1.0000    0     1.008   -1.506160  -12.383341    9.534888
  79 H     1.0000    0     1.008    3.789237  -18.071701    5.606586
  80 H     1.0000    0     1.008    6.314107  -16.057972    6.450235
  81 H     1.0000    0     1.008    2.512932  -14.989730    2.195899
  82 H     1.0000    0     1.008    5.676745  -16.045913    1.835921
  83 N     7.0000    0    14.007   14.241497    4.779901  -15.053668
  84 C     6.0000    0    12.011   16.539994    6.281055  -14.394025
  85 C     6.0000    0    12.011   15.911464    8.261702  -12.371722
  86 C     6.0000    0    12.011   14.830670    2.101409  -15.724681
  87 C     6.0000    0    12.011   15.070842    0.486486  -13.328636
  88 C     6.0000    0    12.011   12.599349    6.059782  -16.960583
  89 C     6.0000    0    12.011    9.808965    5.434005  -16.481325
  90 N     7.0000    0    14.007   14.847602    7.033056  -10.182177
  91 N     7.0000    0    14.007   12.774111    0.663012  -11.870286
  92 N     7.0000    0    14.007    9.129862    6.158372  -13.942063
  93 Ca   20.0000    0    40.080   10.938963    4.509484  -10.012506
  94 H     1.0000    0     1.008   17.293653    7.183252  -16.090830
  95 H     1.0000    0     1.008   17.987364    5.002143  -13.660935
  96 H     1.0000    0     1.008   17.648206    9.311198  -11.933084
  97 H     1.0000    0     1.008   14.514882    9.616044  -13.087085
  98 H     1.0000    0     1.008   16.569831    2.027340  -16.834086
  99 H     1.0000    0     1.008   13.301284    1.351304  -16.893855
 100 H     1.0000    0     1.008   15.505745   -1.460733  -13.902368
 101 H     1.0000    0     1.008   16.630453    1.164212  -12.142972
 102 H     1.0000    0     1.008   13.161017    5.485133  -18.861851
 103 H     1.0000    0     1.008   12.868262    8.102784  -16.811604
 104 H     1.0000    0     1.008    9.472714    3.397637  -16.674359
 105 H     1.0000    0     1.008    8.673164    6.407872  -17.920705
 106 N     7.0000    0    14.007  -14.407516   10.493042   -2.348589
 107 C     6.0000    0    12.011  -14.482565   11.003022   -5.124752
 108 C     6.0000    0    12.011  -11.868361   11.818697   -6.078538
 109 C     6.0000    0    12.011  -16.163415    8.427508   -1.559539
 110 C     6.0000    0    12.011  -14.929309    5.835580   -1.968475
 111 C     6.0000    0    12.011  -14.685153   12.831279   -0.790502
 112 C     6.0000    0    12.011  -13.151830   12.606200    1.660416
 113 N     7.0000    0    14.007  -10.030962    9.899477   -5.466794
 114 N     7.0000    0    14.007  -12.568972    5.718588   -0.608951
 115 N     7.0000    0    14.007  -10.537543   12.114989    1.062009
 116 Ca   20.0000    0    40.080   -8.862726    8.452817   -1.232422
 117 H     1.0000    0     1.008  -15.893889   12.454268   -5.528868
 118 H     1.0000    0     1.008  -15.051221    9.276823   -6.107378
 119 H     1.0000    0     1.008  -12.007122   12.170701   -8.119947
 120 H     1.0000    0     1.008  -11.274971   13.582946   -5.166183
 121 H     1.0000    0     1.008  -17.929049    8.571636   -2.619199
 122 H     1.0000    0     1.008  -16.607637    8.655329    0.445277
 123 H     1.0000    0     1.008  -16.274932    4.376175   -1.360651
 124 H     1.0000    0     1.008  -14.524578    5.528812   -3.978222
 125 H     1.0000    0     1.008  -16.680757   13.159237   -0.377176
 126 H     1.0000    0     1.008  -13.989577   14.445741   -1.875832
 127 H     1.0000    0     1.008  -13.849803   11.033095    2.815638
 128 H     1.0000    0     1.008  -13.408091   14.357438    2.745783
 129 C     6.0000    0    12.011   13.509402   14.350521    7.687668
 130 C     6.0000    0    12.011   -8.833746   13.566981    1.914237
 131 C     6.0000    0    12.011    7.292932    7.654351  -13.588830
 132 C     6.0000    0    12.011    1.477030   12.017167   -0.579809
 133 C     6.0000    0    12.011    3.411704   12.480752    1.143308
 134 C     6.0000    0    12.011    5.925015   12.123258    0.446280
 135 C     6.0000    0    12.011    6.499052   11.286979   -1.982321
 136 C     6.0000    0    12.011    4.572858   10.822961   -3.715618
 137 C     6.0000    0    12.011    2.063894   11.184233   -3.007253
 138 C     6.0000    0    12.011   -1.174292   12.468413    0.137449
 139 C     6.0000    0    12.011   -1.871822   14.618284    1.498142
 140 C     6.0000    0    12.011   -4.392535   14.971613    2.101657
 141 C     6.0000    0    12.011   -6.172780   13.178563    1.327927
 142 N     7.0000    0    14.007   -5.501151   11.102546    0.038409
 143 C     6.0000    0    12.011   -3.089434   10.764418   -0.532773
 144 C     6.0000    0    12.011    7.962255   12.693894    2.254538
 145 C     6.0000    0    12.011   10.128235   14.001277    1.506934
 146 C     6.0000    0    12.011   11.966494   14.530852    3.291348
 147 C     6.0000    0    12.011   11.606535   13.752701    5.790997
 148 N     7.0000    0    14.007    9.539663   12.470899    6.503939
 149 C     6.0000    0    12.011    7.786075   11.961633    4.794733
 150 C     6.0000    0    12.011    5.197744   10.022237   -6.307299
 151 C     6.0000    0    12.011    7.044147    8.179063   -6.769363
 152 C     6.0000    0    12.011    3.985675   11.089874   -8.393095
 153 C     6.0000    0    12.011    4.666352   10.301026  -10.792456
 154 C     6.0000    0    12.011    6.548514    8.466495  -11.066740
 155 N     7.0000    0    14.007    7.699461    7.425741   -9.062849
 156 H     1.0000    0     1.008   -0.491326   16.020067    2.035964
 157 H     1.0000    0     1.008   -4.982176   16.627638    3.135847
 158 H     1.0000    0     1.008   -2.646970    9.034282   -1.543290
 159 H     1.0000    0     1.008   10.360687   14.644383   -0.414440
 160 H     1.0000    0     1.008   13.648103   15.558078    2.765057
 161 H     1.0000    0     1.008    6.172802   10.885852    5.466067
 162 H     1.0000    0     1.008    8.006025    7.247118   -5.214648
 163 H     1.0000    0     1.008    2.573330   12.543242   -8.162392
 164 H     1.0000    0     1.008    3.770718   11.110515  -12.436369
 165 H     1.0000    0     1.008   15.239638   15.245811    6.998286
 166 H     1.0000    0     1.008   -9.280219   15.193542    3.108274
 167 H     1.0000    0     1.008    6.188918    8.419800  -15.159287
 168 C     6.0000    0    12.011    4.540446   14.798555   12.577581
 169 C     6.0000    0    12.011  -12.181179    3.932774    0.939625
 170 C     6.0000    0    12.011    4.536093   -8.302765   11.280004
 171 C     6.0000    0    12.011   -3.119821    3.474663    6.649749
 172 C     6.0000    0    12.011   -2.066736    5.742697    7.473362
 173 C     6.0000    0    12.011    0.130367    5.738208    8.922221
 174 C     6.0000    0    12.011    1.280415    3.452652    9.541820
 175 C     6.0000    0    12.011    0.232929    1.178259    8.730849
 176 C     6.0000    0    12.011   -1.962115    1.195947    7.277673
 177 C     6.0000    0    12.011   -5.481164    3.494024    5.176708
 178 C     6.0000    0    12.011   -7.421653    1.778618    5.678345
 179 C     6.0000    0    12.011   -9.620035    1.906075    4.266214
 180 C     6.0000    0    12.011   -9.848213    3.751811    2.388683
 181 N     7.0000    0    14.007   -7.974169    5.382641    1.887338
 182 C     6.0000    0    12.011   -5.869330    5.251930    3.232471
 183 C     6.0000    0    12.011    1.199349    8.134367    9.851102
 184 C     6.0000    0    12.011   -0.350645   10.023340   10.845362
 185 C     6.0000    0    12.011    0.747888   12.227931   11.725559
 186 C     6.0000    0    12.011    3.373501   12.502902   11.606780
 187 N     7.0000    0    14.007    4.861783   10.698431   10.630603
 188 C     6.0000    0    12.011    3.807745    8.594127    9.782722
 189 C     6.0000    0    12.011    1.400247   -1.241941    9.457566
 190 C     6.0000    0    12.011    1.670384   -3.215108    7.710325
 191 C     6.0000    0    12.011    2.261571   -1.657905   11.915987
 192 C     6.0000    0    12.011    3.310995   -3.978580   12.512610
 193 C     6.0000    0    12.011    3.472682   -5.844216   10.647986
 194 N     7.0000    0    14.007    2.666507   -5.437803    8.279757
 195 H     1.0000    0     1.008   -7.251285    0.400539    7.172054
 196 H     1.0000    0     1.008  -11.155006    0.613427    4.630414
 197 H     1.0000    0     1.008   -4.398358    6.587144    2.718410
 198 H     1.0000    0     1.008   -2.369695    9.768196   10.979611
 199 H     1.0000    0     1.008   -0.407277   13.709343   12.519717
 200 H     1.0000    0     1.008    5.092815    7.214113    8.973571
 201 H     1.0000    0     1.008    1.085805   -2.970986    5.758744
 202 H     1.0000    0     1.008    2.076664   -0.224462   13.355101
 203 H     1.0000    0     1.008    3.974927   -4.353750   14.404212
 204 H     1.0000    0     1.008    3.250251   16.292514   13.189371
 205 H     1.0000    0     1.008    5.327130   -8.495739   13.179434
 206 C     6.0000    0    12.011   -8.702683    8.931611   -7.209241
 207 C     6.0000    0    12.011   11.610758   -1.336449  -11.249329
 208 C     6.0000    0    12.011   -2.817586  -10.193221    4.464113
 209 C     6.0000    0    12.011    2.406241   -0.894364   -5.774790
 210 C     6.0000    0    12.011    0.722261    1.052854   -6.324717
 211 C     6.0000    0    12.011   -1.585507    1.205392   -5.067988
 212 C     6.0000    0    12.011   -2.202618   -0.594528   -3.248609
 213 C     6.0000    0    12.011   -0.527062   -2.546248   -2.690737
 214 C     6.0000    0    12.011    1.779185   -2.686257   -3.951963
 215 C     6.0000    0    12.011    4.810443   -1.093141   -7.162530
 216 C     6.0000    0    12.011    5.679905   -3.418586   -8.055185
 217 C     6.0000    0    12.011    7.931423   -3.502300   -9.383611
 218 C     6.0000    0    12.011    9.270063   -1.263059   -9.803976
 219 N     7.0000    0    14.007    8.450636    0.967397   -8.922237
 220 C     6.0000    0    12.011    6.299229    1.044096   -7.648148
 221 C     6.0000    0    12.011   -3.394857    3.223897   -5.701680
 222 C     6.0000    0    12.011   -3.868593    3.894182   -8.208773
 223 C     6.0000    0    12.011   -5.606533    5.784949   -8.706620
 224 C     6.0000    0    12.011   -6.846058    6.966270   -6.693896
 225 N     7.0000    0    14.007   -6.378479    6.335933   -4.284048
 226 C     6.0000    0    12.011   -4.712440    4.531192   -3.810858
 227 C     6.0000    0    12.011   -1.210808   -4.498655   -0.828631
 228 C     6.0000    0    12.011    0.548068   -5.382086    0.945467
 229 C     6.0000    0    12.011   -3.628435   -5.553355   -0.783736
 230 C     6.0000    0    12.011   -4.163783   -7.415747    0.973218
 231 C     6.0000    0    12.011   -2.274389   -8.199140    2.646612
 232 N     7.0000    0    14.007    0.040744   -7.168046    2.621966
 233 H     1.0000    0     1.008    4.603701   -5.127301   -7.769429
 234 H     1.0000    0     1.008    8.633794   -5.273080  -10.111848
 235 H     1.0000    0     1.008   -2.941385    2.932947   -9.750222
 236 H     1.0000    0     1.008   -6.019467    6.324841  -10.629561
 237 H     1.0000    0     1.008   -4.374809    4.125530   -1.828131
 238 H     1.0000    0     1.008    2.436416   -4.583378    1.035956
 239 H     1.0000    0     1.008   -5.055923   -4.975881   -2.121115
 240 H     1.0000    0     1.008   -6.012758   -8.274340    1.034223
 241 H     1.0000    0     1.008   -8.897112    9.512167   -9.183061
 242 H     1.0000    0     1.008   -4.774326  -10.853879    4.537696
 243 H     1.0000    0     1.008   17.482537    8.611750   -7.772879
 244 H     1.0000    0     1.008    9.602710   -1.188571    6.539368
 245 H     1.0000    0     1.008   12.668930    5.529197    3.251506
 246 H     1.0000    0     1.008   11.273634   -0.958454   -1.364670
 247 H     1.0000    0     1.008    2.960534   13.162335    3.010876
 248 H     1.0000    0     1.008    8.446216   11.042398   -2.534113
 249 H     1.0000    0     1.008    0.573963   10.858500   -4.360111
 250 H     1.0000    0     1.008   -2.979220    7.510189    7.026945
 251 H     1.0000    0     1.008    2.962973    3.437592   10.692982
 252 H     1.0000    0     1.008   -2.796440   -0.563212    6.673685
 253 H     1.0000    0     1.008    1.185062    2.424450   -7.760400
 254 H     1.0000    0     1.008   -4.003982   -0.505455   -2.298581
 255 H     1.0000    0     1.008    3.068888   -4.212878   -3.549568
 256 H     1.0000    0     1.008    8.103857  -12.790372    0.679437
 257 H     1.0000    0     1.008   12.295247   -3.210907  -11.786538
 258 H     1.0000    0     1.008    5.743334    2.889813   -6.944269
 259 H     1.0000    0     1.008  -13.588177    2.458494    1.282540
 260 H     1.0000    0     1.008   10.949509   13.803335   13.719445
 261 H     1.0000    0     1.008    2.779690  -12.782229    6.790494
 262 H     1.0000    0     1.008  -12.598056    9.820282   -1.979758
 263 H     1.0000    0     1.008   13.173860    4.692101  -13.405727

--------------------------------
INTERNAL COORDINATES (ANGSTROEM)
--------------------------------
 N      0   0   0     0.000000000000     0.00000000     0.00000000
 C      1   0   0     1.494134999513     0.00000000     0.00000000
 C      2   1   0     1.534661907828   110.51949234     0.00000000
 C      1   2   3     1.494242982481   113.03255621   213.08065449
 C      4   1   2     1.534545788295   110.49052264    83.38126116
 C      1   2   3     1.494162414272   112.97322839    83.26427111
 C      6   1   2     1.534411167255   110.45623992   213.19979555
 N      3   2   1     1.442802930838   109.67542122    56.84500322
 N      5   4   1     1.442781619065   109.64160935    56.43792747
 N      7   6   1     1.442734051049   109.55135112    56.99266037
 Ca     8   3   2     2.446505464334   126.58174672   298.61469175
 H      2   1   3     1.092373770582   109.71194588   237.63198444
 H      2   1   3     1.093267395341   108.89683979   119.82080483
 H      3   2   1     1.098677258996   108.10673553   179.99753399
 H      3   2   1     1.096966071501   110.64146471   297.96083794
 H      4   1   2     1.092383644063   109.75126754   320.96516824
 H      4   1   2     1.093251352786   108.88308351   203.13791151
 H      5   4   1     1.098603981085   108.13481087   179.59341314
 H      5   4   1     1.096912704501   110.61525984   297.49221302
 H      6   1   2     1.092317899607   109.71678984    90.80553288
 H      6   1   2     1.093372493529   108.91223764   332.94787521
 H      7   6   1     1.098643580364   108.13779687   180.11275420
 H      7   6   1     1.096878992841   110.67033059   298.08153914
 C      8   3   2     1.267558523171   119.66734303   124.02512286
 C     24   8   3    12.225063600669   142.63971301   153.22877111
 C      9   5   4    10.244292769995   127.07467449   161.35934755
 C     25  24   8     5.672647085199    30.51850815    54.28012742
 C     27  25  24     1.392929101706   118.21262751   358.71768694
 C     28  27  25     1.392854469804   120.28774398   178.50019960
 C     29  28  27     1.393143054801   119.70184287     0.36020128
 C     30  29  28     1.392994190455   120.28946627   359.63020771
 C     27  25  24     1.392740599884   122.04430593   177.51971105
 C     27  25  24     1.472984911867     1.84261651   162.96715753
 C     33  27  32     1.395986886089   121.08244803    42.96609922
 C     34  33  27     1.384247568156   118.91702288   178.91467995
 C     35  34  33     1.398376961523   119.33688822     0.00000000
 N     36  35  34     1.341240341843   121.76590395     0.72157077
 C     37  36  35     1.323630117102   118.83234836   359.24454601
 C     29  28  27     1.473210723047   120.14746898   181.97556520
 C     39  29  28     1.396126303481   121.09826755    42.61570813
 C     40  39  29     1.384262734502   118.94282495   179.35140536
 C     41  40  39     1.398347731509   119.33402242   359.79420585
 N     42  41  40     1.341216023468   121.75196685     0.68356367
 C     43  42  41     1.323651534644   118.84427318   359.45229467
 C     31  30  29     1.473051249301   120.29730075   182.13064297
 C     45  31  30     1.402182586575   121.31076568   221.94313139
 C     45  31  30     1.396040748307   121.07734807    42.51640899
 C     47  45  31     1.384197377348   118.93163962   178.90389820
 C     48  47  45     1.398481545604   119.34279186   359.85995309
 N     46  45  31     1.323758766673   123.52588663   181.19008639
 H     34  33  27     1.079295856376   121.13225055     0.57265401
 H     35  34  33     1.079258296397   120.35226176   180.73134317
 H     38  37  36     1.085872970394   115.80032780   178.82241985
 H     40  39  29     1.079267863990   121.12213624     0.97215002
 H     41  40  39     1.079284860091   120.34895172   180.57931997
 H     44  43  42     1.085746307155   115.77212348   178.68698939
 H     46  45  31     1.085812924963   120.68415267     2.48870903
 H     47  45  31     1.079271170168   121.10868803     0.56483766
 H     48  47  45     1.079279303618   120.36009444   180.69319988
 H     24   8   3     1.093589977920   121.94720732     0.15618933
 N     25  24   8     4.051863555127    92.15996026   251.32224119
 C     61  25  24     1.494117989004   119.51301107   314.38279599
 C     62  61  25     1.534400048446   110.47884269    21.39347887
 C     61  25  24     1.494101501154   126.31237239   120.93230447
 C     64  61  25     1.534331758176   110.47564377   276.00496514
 C     61  25  24     1.494074225632    55.31684435   215.54152020
 C     66  61  25     1.534429117143   110.50349300   323.98944604
 N     63  62  61     1.442823652956   109.64525852    56.66143696
 N     65  64  61     1.442872052109   109.71329016    56.74433720
 N     25  24   8     1.267517907698    96.25480701   267.76493907
 Ca    37  36  35     2.361036912598   115.61211101   182.30274521
 H     62  61  25     1.092353621559   109.75125174   259.00451216
 H     62  61  25     1.093247037227   108.89943687   141.16791619
 H     63  62  61     1.098638492136   108.12211607   179.81417078
 H     63  62  61     1.096875967120   110.64595469   297.72876863
 H     64  61  25     1.092372102227   109.72780992   153.64912131
 H     64  61  25     1.093214588172   108.91044025    35.82001062
 H     65  64  61     1.098615531544   108.13163567   179.92417289
 H     65  64  61     1.096947100564   110.60703913   297.80754611
 H     66  61  25     1.092346826825   109.71587528   201.58684720
 H     66  61  25     1.093286629848   108.91144463    83.76756635
 H     67  66  61     1.096938796888   110.67732466   298.03472858
 H     67  66  61     1.098663247168   108.09620384   180.05371383
 N     26   9   5     4.053988398669   160.04367502   178.56097679
 C     84  26   9     1.494087715123    55.61454716   151.35135432
 C     85  84  26     1.534405724840   110.46639643   324.51336489
 C     84  26   9     1.494089537138   119.84246449   250.11019679
 C     87  84  26     1.534311855607   110.44306425    20.95569511
 C     84  26   9     1.494030368986   125.86755864    56.25737026
 C     89  84  26     1.534388628819   110.50346704   276.27463730
 N     26   9   5     1.267550232407   146.14102141   197.39734113
 N     88  87  84     1.442716228730   109.64539888    56.91191115
 N     90  89  84     1.442795500730   109.65127835    56.91521404
 Ca    50  46  45     2.364699958662   125.44102492   176.91124138
 H     85  84  26     1.092351855197   109.72783613   202.16110094
 H     85  84  26     1.093223890181   108.91181213    84.32074490
 H     86  85  84     1.098615410949   108.13934828   179.61904817
 H     86  85  84     1.096869271384   110.58910638   297.48043203
 H     87  84  26     1.092331317484   109.72981194   258.58126006
 H     87  84  26     1.093317461392   108.93191809   140.72464349
 H     88  87  84     1.098596940448   108.14310465   180.08673643
 H     88  87  84     1.097005925372   110.66329662   298.05366913
 H     89  84  26     1.092274775601   109.73425118   153.88297648
 H     89  84  26     1.093281579107   108.89704893    36.05912955
 H     90  89  84     1.096958014892   110.65359086   298.01175120
 H     90  89  84     1.098635672141   108.09832177   180.04770134
 N     56  44  43    13.641340689543   130.90460209   273.73859971
 C    107  56  44     1.494192243171   112.44668246   207.99153866
 C    108 107  56     1.534531133017   110.50102475   342.41063422
 C    107  56  44     1.494137286050   112.88585206   337.25125886
 C    110 107  56     1.534462145129   110.47611454   314.19072063
 C    107  56  44     1.494124437008    90.73151472    92.67099259
 C    112 107  56     1.534498587671   110.49571772   327.95025686
 N    109 108 107     1.442789241326   109.61696422    56.79104089
 N    111 110 107     1.442741916920   109.66299653    56.62132700
 N    113 112 107     1.442808849523   109.60218166    56.88633591
 Ca   114 109 108     2.447266208368   126.57456302   298.54382433
 H    108 107  56     1.092371193762   109.73212538   220.00846376
 H    108 107  56     1.093322158446   108.90629357   102.19570206
 H    109 108 107     1.098666041253   108.10985787   179.92434346
 H    109 108 107     1.096952235177   110.65210872   297.90104072
 H    110 107  56     1.092352726551   109.71789073   191.82687262
 H    110 107  56     1.093301509211   108.91836123    73.98429340
 H    111 110 107     1.098602056351   108.13212816   179.79598100
 H    111 110 107     1.096941866263   110.61612678   297.67702686
 H    112 107  56     1.092315428497   109.70254877   205.56444243
 H    112 107  56     1.093267335920   108.91397246    87.73250564
 H    113 112 107     1.096861331940   110.60447718   297.95835891
 H    113 112 107     1.098667314993   108.12633226   180.02465078
 C      9   5   4     1.267564748003   119.66062464   125.23190441
 C    116 113 112     1.267541967010   119.65194502   124.50869802
 C     93  90  89     1.267491099368   119.62378249   124.30451763
 C    131 116 113     5.673171951204   120.91089738   182.06265303
 C    133 131 116     1.392752474308   121.95144934   215.76189775
 C    134 133 131     1.393091413881   120.29934840   181.21215139
 C    135 134 133     1.392750124656   119.71546950   359.69845436
 C    136 135 134     1.393038807400   120.26409863     0.38204273
 C    137 136 135     1.392771899080   119.74293250   359.62424984
 C    133 131 116     1.472937817315     1.83068628   199.37776682
 C    139 133 134     1.396063435554   121.12223467    42.35391288
 C    140 139 133     1.384288087416   118.93622624   179.25523576
 C    141 140 139     1.398366056479   119.33856852   359.74854612
 N    142 141 140     1.341209886213   121.75139150     0.80818038
 C    143 142 141     1.323678754497   118.84182010   359.33658130
 C    135 134 133     1.472764554728   119.93177493   178.09391037
 C    145 135 134     1.396028717553   121.23056731   224.02069842
 C    146 145 135     1.384359881288   118.94362187   178.81236769
 C    147 146 145     1.398403678384   119.33252899   359.81258053
 N    148 147 146     1.341154707221   121.74236141     0.98506133
 C    149 148 147     1.323557821382   118.84979015   359.15060933
 C    137 136 135     1.473019807730   119.96557568   177.91813085
 C    151 137 136     1.402069541116   121.26011938    44.11725185
 C    151 137 136     1.396015547272   121.10293242   224.68286020
 C    153 151 137     1.384234964240   118.92204736   179.03685500
 C    154 153 151     1.398396989236   119.33361712   359.82919604
 N    152 151 137     1.323684392993   123.50244393   181.08856304
 H    140 139 133     1.079316217944   121.13897271     0.93139188
 H    141 140 139     1.079267816750   120.34745926   180.61901574
 H    144 143 142     1.085818266883   115.74331686   178.77892262
 H    146 145 135     1.079222883715   121.12009889     0.55878792
 H    147 146 145     1.079312436121   120.35077075   180.71132090
 H    150 149 148     1.085863952975   115.74631733   178.75586681
 H    152 151 137     1.085893261646   120.69489576     2.36733663
 H    153 151 137     1.079342651480   121.13688413     0.64212344
 H    154 153 151     1.079298532937   120.35466454   180.60702958
 H    130   9   5     1.093555318908   121.94885558     0.12664251
 H    131 116 113     1.093588150842   121.93851411     0.27894682
 H    132  93  90     1.093630899616   121.93459300     0.17450184
 C     10   7   6     1.267473498268   119.61497264   124.49212628
 C    115 111 110     1.267553940968   119.63876482   125.70999945
 C     68  63  62     1.267495703833   119.58519205   124.80758061
 C    159 144 143     5.245500406484    93.18614474   281.74385176
 C    172 159 144     1.393184621324    75.89593072   323.72258503
 C    173 172 159     1.392698952477   120.30994527   229.91607516
 C    174 173 172     1.393081244139   119.71924380     0.18561810
 C    175 174 173     1.392828399303   120.25437736   359.61826646
 C    172 159 144     1.392763892603   131.43756792   206.37542448
 C    172 159 144     1.472802474050    66.36668874    95.90554919
 C    178 172 159     1.396040602927   121.25872260   167.63257601
 C    179 178 172     1.384306329830   118.93475867   178.90007541
 C    180 179 178     1.398463350558   119.34733316   359.64342241
 N    181 180 179     1.341126656091   121.74387982     1.10280762
 C    182 181 180     1.323664074489   118.83105104   359.16757878
 C    174 173 172     1.472893115866   120.19043801   181.73770279
 C    184 174 173     1.395990856087   121.10183944    42.68972872
 C    185 184 174     1.384154511370   118.91962279   179.12882553
 C    186 185 184     1.398426178330   119.33060294   359.74545888
 N    187 186 185     1.341233818016   121.77890111     0.88266683
 C    188 187 186     1.323789223093   118.81638259   359.31811963
 C    176 175 174     1.472988191018   120.26365209   182.06486838
 C    190 176 175     1.401991112029   121.20699592   222.45445829
 C    190 176 175     1.395938759064   121.15389473    42.88884463
 C    192 190 176     1.384259498706   118.91007336   179.06630298
 C    193 192 190     1.398426771186   119.33542116   359.75710599
 N    191 190 176     1.323671604466   123.52240808   181.16909227
 H    179 178 172     1.079222634823   121.14431234     0.55577063
 H    180 179 178     1.079277049137   120.34437754   180.62516193
 H    183 182 181     1.085885701339   115.75257441   178.62603772
 H    185 184 174     1.079272674492   121.12358285     0.73444643
 H    186 185 184     1.079271593806   120.35490687   180.59914376
 H    189 188 187     1.085854185103   115.81726613   178.67039968
 H    191 190 176     1.085780228826   120.63782918     2.34066104
 H    192 190 176     1.079313840002   121.14086469     0.67402057
 H    193 192 190     1.079277302886   120.35258722   180.57843037
 H    169  10   7     1.093593307601   121.92850022     0.25059142
 H    171  68  63     1.093594824678   121.92244560     0.09616629
 C    114 109 108     1.267510490133   119.66525520   124.14114859
 C     92  88  87     1.267467346262   119.59061564   125.27558319
 C     69  65  64     1.267542839194   119.56249339   125.51012922
 C     57  46  45     4.569260528404   172.21323168   139.37951659
 C    210  57  46     1.393039908593   108.08861677   333.36797930
 C    211 210  57     1.392895180395   120.26364858   231.52300531
 C    212 211 210     1.393121635737   119.72622681     0.22219609
 C    213 212 211     1.392844425081   120.27980306   359.76492730
 C    210  57  46     1.392729467856   110.87564206   200.29802619
 C    210  57  46     1.472741525826    49.74008524    87.85083060
 C    216 210  57     1.396114173592   121.08836919   135.14117651
 C    217 216 210     1.384084965135   118.93046081   178.99534221
 C    218 217 216     1.398356482766   119.32399810   359.79735026
 N    219 218 217     1.341217036822   121.77641276     0.98221013
 C    220 219 218     1.323761891510   118.83062248   359.14075061
 C    212 211 210     1.473136508960   120.21060142   181.71491895
 C    222 212 211     1.395987347578   121.15033808    42.88944458
 C    223 222 212     1.384310610780   118.93497069   179.30233580
 C    224 223 222     1.398369815333   119.32659041   359.78704677
 N    225 224 223     1.341161453253   121.76944392     0.70944330
 C    226 225 224     1.323650560078   118.82947283   359.42866594
 C    214 213 212     1.472866558738   120.36860167   182.02085199
 C    228 214 213     1.402221940256   121.24691032   221.85468877
 C    228 214 213     1.395997787568   121.12899824    42.48036543
 C    230 228 214     1.384179104368   118.92438548   178.81943017
 C    231 230 228     1.398446885662   119.34481054   359.74374523
 N    229 228 214     1.323755632836   123.51194324   181.40868062
 H    217 216 210     1.079259127301   121.14198202     0.67046407
 H    218 217 216     1.079225255580   120.37190850   180.69517872
 H    223 222 212     1.079281616920   121.12302744     0.88173988
 H    224 223 222     1.079275212461   120.34926220   180.60484171
 H    227 226 225     1.085750376833   115.78940729   178.67183729
 H    229 228 214     1.086036264825   120.69808606     2.65703166
 H    230 228 214     1.079285799117   121.13541814     0.45865021
 H    231 230 228     1.079263474274   120.35620432   180.61707133
 H    207 114 109     1.093594784894   121.94566087     0.25043395
 H    209  69  65     1.093581982221   121.90323078     0.00000000
 H     26   9   5     1.093614974822    78.22071950   328.54257368
 H     28  27  25     1.078765049447   119.93203559     0.02796594
 H     30  29  28     1.078788148324   119.94952575   181.15475916
 H     32  27  25     1.078776550827   119.72998312     0.00000000
 H    134 133 131     1.078784532684   119.73419191   359.74519522
 H    136 135 134     1.078761432969   119.75000913   178.88607930
 H    138 137 136     1.078823108108   119.74542821   178.85817510
 H    173 172 159     1.078787501046   119.95768338    51.39997552
 H    175 174 173     1.078847180895   119.98994182   181.14498549
 H    177 172 159     1.078734647464   119.76398962   276.16604873
 H    211 210  57     1.078878634425   119.96863546    52.97585270
 H    213 212 211     1.078716821062   119.95699380   181.26196486
 H    215 210  57     1.078772757440   119.72502577   305.82529176
 H     25  24   8     1.093588615939   137.18303142   113.44101460
 H    208  92  88     1.093581835850   121.93227333     0.00000000
 H    221 220 219     1.085926973571   115.80117976   178.78865896
 H    170 115 111     1.093584709546   121.93212296     0.11806093
 H      1   2   3     1.040048278980   105.69176091   328.15453263
 H     61  25  24     1.040115203424    50.55747473    40.74377991
 H    107  56  44     1.040043664161    14.96184323   273.72238418
 H     84  26   9     1.040108139473    50.17426845   335.93757310

---------------------------
INTERNAL COORDINATES (A.U.)
---------------------------
 N      0   0   0     0.000000000000     0.00000000     0.00000000
 C      1   0   0     2.823505956186     0.00000000     0.00000000
 C      2   1   0     2.900090713955   110.51949234     0.00000000
 C      1   2   3     2.823710014422   113.03255621   213.08065449
 C      4   1   2     2.899871279839   110.49052264    83.38126116
 C      1   2   3     2.823557762573   112.97322839    83.26427111
 C      6   1   2     2.899616882943   110.45623992   213.19979555
 N      3   2   1     2.726502404503   109.67542122    56.84500322
 N      5   4   1     2.726462131088   109.64160935    56.43792747
 N      7   6   1     2.726372240565   109.55135112    56.99266037
 Ca     8   3   2     4.623225312732   126.58174672   298.61469175
 H      2   1   3     2.064287262280   109.71194588   237.63198444
 H      2   1   3     2.065975968340   108.89683979   119.82080483
 H      3   2   1     2.076199129070   108.10673553   179.99753399
 H      3   2   1     2.072965453340   110.64146471   297.96083794
 H      4   1   2     2.064305920455   109.75126754   320.96516824
 H      4   1   2     2.065945652305   108.88308351   203.13791151
 H      5   4   1     2.076060653887   108.13481087   179.59341314
 H      5   4   1     2.072864604327   110.61525984   297.49221302
 H      6   1   2     2.064181681438   109.71678984    90.80553288
 H      6   1   2     2.066174575133   108.91223764   332.94787521
 H      7   6   1     2.076135485678   108.13779687   180.11275420
 H      7   6   1     2.072800898520   110.67033059   298.08153914
 C      8   3   2     2.395338467511   119.66734303   124.02512286
 C     24   8   3    23.102022175035   142.63971301   153.22877111
 C      9   5   4    19.358907770999   127.07467449   161.35934755
 C     25  24   8    10.719749445412    30.51850815    54.28012742
 C     27  25  24     2.632254526193   118.21262751   358.71768694
 C     28  27  25     2.632113492338   120.28774398   178.50019960
 C     29  28  27     2.632658838948   119.70184287     0.36020128
 C     30  29  28     2.632377526104   120.28946627   359.63020771
 C     27  25  24     2.631898309375   122.04430593   177.51971105
 C     27  25  24     2.783538082826     1.84261651   162.96715753
 C     33  27  32     2.638032901253   121.08244803    42.96609922
 C     34  33  27     2.615848805361   118.91702288   178.91467995
 C     35  34  33     2.642549489263   119.33688822     0.00000000
 N     36  35  34     2.534576925850   121.76590395     0.72157077
 C     37  36  35     2.501298423932   118.83234836   359.24454601
 C     29  28  27     2.783964804114   120.14746898   181.97556520
 C     39  29  28     2.638296361943   121.09826755    42.61570813
 C     40  39  29     2.615877465602   118.94282495   179.35140536
 C     41  40  39     2.642494252542   119.33402242   359.79420585
 N     42  41  40     2.534530970782   121.75196685     0.68356367
 C     43  42  41     2.501338897222   118.84427318   359.45229467
 C     31  30  29     2.783663442409   120.29730075   182.13064297
 C     45  31  30     2.649741078380   121.31076568   221.94313139
 C     45  31  30     2.638134686095   121.07734807    42.51640899
 C     47  45  31     2.615753958480   118.93163962   178.90389820
 C     48  47  45     2.642747124534   119.34279186   359.85995309
 N     46  45  31     2.501541536389   123.52588663   181.19008639
 H     34  33  27     2.039573586026   121.13225055     0.57265401
 H     35  34  33     2.039502607953   120.35226176   180.73134317
 H     38  37  36     2.052002530273   115.80032780   178.82241985
 H     40  39  29     2.039520688083   121.12213624     0.97215002
 H     41  40  39     2.039552806060   120.34895172   180.57931997
 H     44  43  42     2.051763171439   115.77212348   178.68698939
 H     46  45  31     2.051889060852   120.68415267     2.48870903
 H     47  45  31     2.039526935854   121.10868803     0.56483766
 H     48  47  45     2.039542305846   120.36009444   180.69319988
 H     24   8   3     2.066585561070   121.94720732     0.15618933
 N     25  24   8     7.656912451207    92.15996026   251.32224119
 C     61  25  24     2.823473810983   119.51301107   314.38279599
 C     62  61  25     2.899595871438   110.47884269    21.39347887
 C     61  25  24     2.823442653462   126.31237239   120.93230447
 C     64  61  25     2.899466821531   110.47564377   276.00496514
 C     61  25  24     2.823391110196    55.31684435   215.54152020
 C     66  61  25     2.899650803316   110.50349300   323.98944604
 N     63  62  61     2.726541563630   109.64525852    56.66143696
 N     65  64  61     2.726633024775   109.71329016    56.74433720
 N     25  24   8     2.395261715389    96.25480701   267.76493907
 Ca    37  36  35     4.461713156889   115.61211101   182.30274521
 H     62  61  25     2.064249186143   109.75125174   259.00451216
 H     62  61  25     2.065937497081   108.89943687   141.16791619
 H     63  62  61     2.076125870322   108.12211607   179.81417078
 H     63  62  61     2.072795180736   110.64595469   297.72876863
 H     64  61  25     2.064284109545   109.72780992   153.64912131
 H     64  61  25     2.065876177252   108.91044025    35.82001062
 H     65  64  61     2.076082481091   108.13163567   179.92417289
 H     65  64  61     2.072929603465   110.60703913   297.80754611
 H     66  61  25     2.064236345957   109.71587528   201.58684720
 H     66  61  25     2.066012316290   108.91144463    83.76756635
 H     67  66  61     2.072913911791   110.67732466   298.03472858
 H     67  66  61     2.076172650553   108.09620384   180.05371383
 N     26   9   5     7.660927823579   160.04367502   178.56097679
 C     84  26   9     2.823416601638    55.61454716   151.35135432
 C     85  84  26     2.899606598269   110.46639643   324.51336489
 C     84  26   9     2.823420044747   119.84246449   250.11019679
 C     87  84  26     2.899429211125   110.44306425    20.95569511
 C     84  26   9     2.823308233145   125.86755864    56.25737026
 C     89  84  26     2.899574291471   110.50346704   276.27463730
 N     26   9   5     2.395322800237   146.14102141   197.39734113
 N     88  87  84     2.726338561263   109.64539888    56.91191115
 N     90  89  84     2.726488363633   109.65127835    56.91521404
 Ca    50  46  45     4.468635310766   125.44102492   176.91124138
 H     85  84  26     2.064245848204   109.72783613   202.16110094
 H     85  84  26     2.065893755502   108.91181213    84.32074490
 H     86  85  84     2.076082253199   108.13934828   179.61904817
 H     86  85  84     2.072782527629   110.58910638   297.48043203
 H     87  84  26     2.064207037550   109.72981194   258.58126006
 H     87  84  26     2.066070579466   108.93191809   140.72464349
 H     88  87  84     2.076047349011   108.14310465   180.08673643
 H     88  87  84     2.073040766242   110.66329662   298.05366913
 H     89  84  26     2.064100188876   109.73425118   153.88297648
 H     89  84  26     2.066002771773   108.89704893    36.05912955
 H     90  89  84     2.072950228556   110.65359086   298.01175120
 H     90  89  84     2.076120541304   108.09832177   180.04770134
 N     56  44  43    25.778398002753   130.90460209   273.73859971
 C    107  56  44     2.823614131023   112.44668246   207.99153866
 C    108 107  56     2.899843585378   110.50102475   342.41063422
 C    107  56  44     2.823510277115   112.88585206   337.25125886
 C    110 107  56     2.899713217163   110.47611454   314.19072063
 C    107  56  44     2.823485995945    90.73151472    92.67099259
 C    112 107  56     2.899782083587   110.49571772   327.95025686
 N    109 108 107     2.726476535075   109.61696422    56.79104089
 N    111 110 107     2.726387104906   109.66299653    56.62132700
 N    113 112 107     2.726513589197   109.60218166    56.88633591
 Ca   114 109 108     4.624662910615   126.57456302   298.54382433
 H    108 107  56     2.064282392794   109.73212538   220.00846376
 H    108 107  56     2.066079455610   108.90629357   102.19570206
 H    109 108 107     2.076177930607   108.10985787   179.92434346
 H    109 108 107     2.072939306478   110.65210872   297.90104072
 H    110 107  56     2.064247494824   109.71789073   191.82687262
 H    110 107  56     2.066040434211   108.91836123    73.98429340
 H    111 110 107     2.076057016666   108.13212816   179.79598100
 H    111 110 107     2.072919712069   110.61612678   297.67702686
 H    112 107  56     2.064177011716   109.70254877   205.56444243
 H    112 107  56     2.065975856050   108.91397246    87.73250564
 H    113 112 107     2.072767524254   110.60447718   297.95835891
 H    113 112 107     2.076180337628   108.12633226   180.02465078
 C      9   5   4     2.395350230738   119.66062464   125.23190441
 C    116 113 112     2.395307180901   119.65194502   124.50869802
 C     93  90  89     2.395211054988   119.62378249   124.30451763
 C    131 116 113    10.720741298419   120.91089738   182.06265303
 C    133 131 116     2.631920748783   121.95144934   215.76189775
 C    134 133 131     2.632561251752   120.29934840   181.21215139
 C    135 134 133     2.631916308585   119.71546950   359.69845436
 C    136 135 134     2.632461839911   120.26409863     0.38204273
 C    137 136 135     2.631957456283   119.74293250   359.62424984
 C    133 131 116     2.783449087022     1.83068628   199.37776682
 C    139 133 134     2.638177558778   121.12223467    42.35391288
 C    140 139 133     2.615925375666   118.93622624   179.25523576
 C    141 140 139     2.642528881716   119.33856852   359.74854612
 N    142 141 140     2.534519373050   121.75139150     0.80818038
 C    143 142 141     2.501390335289   118.84182010   359.33658130
 C    135 134 133     2.783121668182   119.93177493   178.09391037
 C    145 135 134     2.638111951265   121.23056731   224.02069842
 C    146 145 135     2.616061046422   118.94362187   178.81236769
 C    147 146 145     2.642599976814   119.33252899   359.81258053
 N    148 147 146     2.534415099868   121.74236141     0.98506133
 C    149 148 147     2.501161804821   118.84979015   359.15060933
 C    137 136 135     2.783604026452   119.96557568   177.91813085
 C    151 137 136     2.649527453422   121.26011938    44.11725185
 C    151 137 136     2.638087063041   121.10293242   224.68286020
 C    153 151 137     2.615824987411   118.92204736   179.03685500
 C    154 153 151     2.642587336155   119.33361712   359.82919604
 N    152 151 137     2.501400990502   123.50244393   181.08856304
 H    140 139 133     2.039612063813   121.13897271     0.93139188
 H    141 140 139     2.039520598813   120.34745926   180.61901574
 H    144 143 142     2.051899155617   115.74331686   178.77892262
 H    146 145 135     2.039435687682   121.12009889     0.55878792
 H    147 146 145     2.039604917204   120.35077075   180.71132090
 H    150 149 148     2.051985489820   115.74631733   178.75586681
 H    152 151 137     2.052040875182   120.69489576     2.36733663
 H    153 151 137     2.039662015958   121.13688413     0.64212344
 H    154 153 151     2.039578643994   120.35466454   180.60702958
 H    130   9   5     2.066520065030   121.94885558     0.12664251
 H    131 116 113     2.066582108393   121.93851411     0.27894682
 H    132  93  90     2.066662891867   121.93459300     0.17450184
 C     10   7   6     2.395177793729   119.61497264   124.49212628
 C    115 111 110     2.395329808402   119.63876482   125.70999945
 C     68  63  62     2.395219756167   119.58519205   124.80758061
 C    159 144 143     9.912559203628    93.18614474   281.74385176
 C    172 159 144     2.632737388293    75.89593072   323.72258503
 C    173 172 159     2.631819607181   120.30994527   229.91607516
 C    174 173 172     2.632542033725   119.71924380     0.18561810
 C    175 174 173     2.632064226230   120.25437736   359.61826646
 C    172 159 144     2.631942326234   131.43756792   206.37542448
 C    172 159 144     2.783193325316    66.36668874    95.90554919
 C    178 172 159     2.638134411366   121.25872260   167.63257601
 C    179 178 172     2.615959848832   118.93475867   178.90007541
 C    180 179 178     2.642712740881   119.34733316   359.64342241
 N    181 180 179     2.534362090914   121.74387982     1.10280762
 C    182 181 180     2.501362594095   118.83105104   359.16757878
 C    174 173 172     2.783364613524   120.19043801   181.73770279
 C    184 174 173     2.638040403462   121.10183944    42.68972872
 C    185 184 174     2.615672953522   118.91962279   179.12882553
 C    186 185 184     2.642642495550   119.33060294   359.74545888
 N    187 186 185     2.534564597605   121.77890111     0.88266683
 C    188 187 186     2.501599090682   118.81638259   359.31811963
 C    176 175 174     2.783544279523   120.26365209   182.06486838
 C    190 176 175     2.649379243927   121.20699592   222.45445829
 C    190 176 175     2.637941954357   121.15389473    42.88884463
 C    192 190 176     2.615871350833   118.91007336   179.06630298
 C    193 192 190     2.642643615885   119.33542116   359.75710599
 N    191 190 176     2.501376823690   123.52240808   181.16909227
 H    179 178 172     2.039435217344   121.14431234     0.55577063
 H    180 179 178     2.039538045496   120.34437754   180.62516193
 H    183 182 181     2.052026588272   115.75257441   178.62603772
 H    185 184 174     2.039529778615   121.12358285     0.73444643
 H    186 185 184     2.039527736414   120.35490687   180.59914376
 H    189 188 187     2.051967031217   115.81726613   178.67039968
 H    191 190 176     2.051827274108   120.63782918     2.34066104
 H    192 190 176     2.039607570155   121.14086469     0.67402057
 H    193 192 190     2.039538525011   120.35258722   180.57843037
 H    169  10   7     2.066591853255   121.92850022     0.25059142
 H    171  68  63     2.066594720116   121.92244560     0.09616629
 C    114 109 108     2.395247698224   119.66525520   124.14114859
 C     92  88  87     2.395166168123   119.59061564   125.27558319
 C     69  65  64     2.395308829090   119.56249339   125.51012922
 C     57  46  45     8.634651033220   172.21323168   139.37951659
 C    210  57  46     2.632463920864   108.08861677   333.36797930
 C    211 210  57     2.632190424206   120.26364858   231.52300531
 C    212 211 210     2.632618362783   119.72622681     0.22219609
 C    213 212 211     2.632094510563   120.27980306   359.76492730
 C    210  57  46     2.631877272889   110.87564206   200.29802619
 C    210  57  46     2.783078149865    49.74008524    87.85083060
 C    216 210  57     2.638273439775   121.08836919   135.14117651
 C    217 216 210     2.615541530183   118.93046081   178.99534221
 C    218 217 216     2.642510790022   119.32399810   359.79735026
 N    219 218 217     2.534532885743   121.77641276     0.98221013
 C    220 219 218     2.501547441475   118.83062248   359.14075061
 C    212 211 210     2.783824559814   120.21060142   181.71491895
 C    222 212 211     2.638033773342   121.15033808    42.88944458
 C    223 222 212     2.615967938655   118.93497069   179.30233580
 C    224 223 222     2.642535984921   119.32659041   359.78704677
 N    225 224 223     2.534427848020   121.76944392     0.70944330
 C    226 225 224     2.501337055560   118.82947283   359.42866594
 C    214 213 212     2.783314427825   120.36860167   182.02085199
 C    228 214 213     2.649815446060   121.24691032   221.85468877
 C    228 214 213     2.638053502063   121.12899824    42.48036543
 C    230 228 214     2.615719427553   118.92438548   178.81943017
 C    231 230 228     2.642681626737   119.34481054   359.74374523
 N    229 228 214     2.501535614296   123.51194324   181.40868062
 H    217 216 210     2.039504178135   121.14198202     0.67046407
 H    218 217 216     2.039440169858   120.37190850   180.69517872
 H    223 222 212     2.039546677354   121.12302744     0.88173988
 H    224 223 222     2.039534574680   120.34926220   180.60484171
 H    227 226 225     2.051770862016   115.78940729   178.67183729
 H    229 228 214     2.052311112026   120.69808606     2.65703166
 H    230 228 214     2.039554580562   121.13541814     0.45865021
 H    231 230 228     2.039512392723   120.35620432   180.61707133
 H    207 114 109     2.066594644934   121.94566087     0.25043395
 H    209  69  65     2.066570451388   121.90323078     0.00000000
 H     26   9   5     2.066632798369    78.22071950   328.54257368
 H     28  27  25     2.038570506300   119.93203559     0.02796594
 H     30  29  28     2.038614156852   119.94952575   181.15475916
 H     32  27  25     2.038592240759   119.72998312     0.00000000
 H    134 133 131     2.038607324282   119.73419191   359.74519522
 H    136 135 134     2.038563672148   119.75000913   178.88607930
 H    138 137 136     2.038680221270   119.74542821   178.85817510
 H    173 172 159     2.038612933675   119.95768338    51.39997552
 H    175 174 173     2.038725712245   119.98994182   181.14498549
 H    177 172 159     2.038513054879   119.76398962   276.16604873
 H    211 210  57     2.038785150802   119.96863546    52.97585270
 H    213 212 211     2.038479367862   119.95699380   181.26196486
 H    215 210  57     2.038585072296   119.72502577   305.82529176
 H     25  24   8     2.066582987299   137.18303142   113.44101460
 H    208  92  88     2.066570174787   121.93227333     0.00000000
 H    221 220 219     2.052104581486   115.80117976   178.78865896
 H    170 115 111     2.066575605285   121.93212296     0.11806093
 H      1   2   3     1.965406413328   105.69176091   328.15453263
 H     61  25  24     1.965532882199    50.55747473    40.74377991
 H    107  56  44     1.965397692585    14.96184323   273.72238418
 H     84  26   9     1.965519533266    50.17426845   335.93757310

---------------------
BASIS SET INFORMATION
---------------------
There are 4 groups of distinct atoms

 Group   1 Type N   : 11s6p2d contracted to 5s3p2d pattern {62111/411/11}
 Group   2 Type C   : 11s6p1d contracted to 5s3p1d pattern {62111/411/1}
 Group   3 Type Ca  : 17s11p4d contracted to 6s4p2d pattern {842111/6311/31}
 Group   4 Type H   : 4s1p contracted to 2s1p pattern {31/1}

Atom   0N    basis set group =>   1
Atom   1C    basis set group =>   2
Atom   2C    basis set group =>   2
Atom   3C    basis set group =>   2
Atom   4C    basis set group =>   2
Atom   5C    basis set group =>   2
Atom   6C    basis set group =>   2
Atom   7N    basis set group =>   1
Atom   8N    basis set group =>   1
Atom   9N    basis set group =>   1
Atom  10Ca   basis set group =>   3
Atom  11H    basis set group =>   4
Atom  12H    basis set group =>   4
Atom  13H    basis set group =>   4
Atom  14H    basis set group =>   4
Atom  15H    basis set group =>   4
Atom  16H    basis set group =>   4
Atom  17H    basis set group =>   4
Atom  18H    basis set group =>   4
Atom  19H    basis set group =>   4
Atom  20H    basis set group =>   4
Atom  21H    basis set group =>   4
Atom  22H    basis set group =>   4
Atom  23C    basis set group =>   2
Atom  24C    basis set group =>   2
Atom  25C    basis set group =>   2
Atom  26C    basis set group =>   2
Atom  27C    basis set group =>   2
Atom  28C    basis set group =>   2
Atom  29C    basis set group =>   2
Atom  30C    basis set group =>   2
Atom  31C    basis set group =>   2
Atom  32C    basis set group =>   2
Atom  33C    basis set group =>   2
Atom  34C    basis set group =>   2
Atom  35C    basis set group =>   2
Atom  36N    basis set group =>   1
Atom  37C    basis set group =>   2
Atom  38C    basis set group =>   2
Atom  39C    basis set group =>   2
Atom  40C    basis set group =>   2
Atom  41C    basis set group =>   2
Atom  42N    basis set group =>   1
Atom  43C    basis set group =>   2
Atom  44C    basis set group =>   2
Atom  45C    basis set group =>   2
Atom  46C    basis set group =>   2
Atom  47C    basis set group =>   2
Atom  48C    basis set group =>   2
Atom  49N    basis set group =>   1
Atom  50H    basis set group =>   4
Atom  51H    basis set group =>   4
Atom  52H    basis set group =>   4
Atom  53H    basis set group =>   4
Atom  54H    basis set group =>   4
Atom  55H    basis set group =>   4
Atom  56H    basis set group =>   4
Atom  57H    basis set group =>   4
Atom  58H    basis set group =>   4
Atom  59H    basis set group =>   4
Atom  60N    basis set group =>   1
Atom  61C    basis set group =>   2
Atom  62C    basis set group =>   2
Atom  63C    basis set group =>   2
Atom  64C    basis set group =>   2
Atom  65C    basis set group =>   2
Atom  66C    basis set group =>   2
Atom  67N    basis set group =>   1
Atom  68N    basis set group =>   1
Atom  69N    basis set group =>   1
Atom  70Ca   basis set group =>   3
Atom  71H    basis set group =>   4
Atom  72H    basis set group =>   4
Atom  73H    basis set group =>   4
[...]
165 H      0.8159     1.0000     0.1841     0.9611     0.9611    -0.0000
166 H      0.8162     1.0000     0.1838     0.9613     0.9613    -0.0000
167 H      0.8164     1.0000     0.1836     0.9614     0.9614    -0.0000
168 C      6.2862     6.0000    -0.2862     4.0536     4.0536    -0.0000
169 C      6.2856     6.0000    -0.2856     4.0541     4.0541    -0.0000
170 C      6.2890     6.0000    -0.2890     4.0565     4.0565     0.0000
171 C      5.8485     6.0000     0.1515     3.5389     3.5389     0.0000
172 C      6.2437     6.0000    -0.2437     3.7984     3.7984     0.0000
173 C      5.8484     6.0000     0.1516     3.5388     3.5388     0.0000
174 C      6.2441     6.0000    -0.2441     3.7964     3.7964     0.0000
175 C      5.8485     6.0000     0.1515     3.5377     3.5377    -0.0000
176 C      6.2432     6.0000    -0.2432     3.7981     3.7981    -0.0000
177 C      5.9100     6.0000     0.0900     3.3265     3.3265    -0.0000
178 C      6.2203     6.0000    -0.2203     3.8156     3.8156    -0.0000
179 C      6.1732     6.0000    -0.1732     3.7490     3.7490    -0.0000
180 C      5.7113     6.0000     0.2887     3.6368     3.6368     0.0000
181 N      7.1743     7.0000    -0.1743     2.9826     2.9826     0.0000
182 C      6.1527     6.0000    -0.1527     3.9467     3.9467    -0.0000
183 C      5.9114     6.0000     0.0886     3.3325     3.3325    -0.0000
184 C      6.2190     6.0000    -0.2190     3.8159     3.8159    -0.0000
185 C      6.1749     6.0000    -0.1749     3.7515     3.7515     0.0000
186 C      5.7105     6.0000     0.2895     3.6388     3.6388     0.0000
187 N      7.1728     7.0000    -0.1728     2.9810     2.9810    -0.0000
188 C      6.1522     6.0000    -0.1522     3.9481     3.9481     0.0000
189 C      5.9107     6.0000     0.0893     3.3282     3.3282    -0.0000
190 C      6.1536     6.0000    -0.1536     3.9487     3.9487    -0.0000
191 C      6.2213     6.0000    -0.2213     3.8167     3.8167    -0.0000
192 C      6.1739     6.0000    -0.1739     3.7509     3.7509     0.0000
193 C      5.7098     6.0000     0.2902     3.6326     3.6326     0.0000
194 N      7.1674     7.0000    -0.1674     2.9811     2.9811     0.0000
195 H      0.7987     1.0000     0.2013     0.9509     0.9509    -0.0000
196 H      0.7938     1.0000     0.2062     0.9494     0.9494    -0.0000
197 H      0.8193     1.0000     0.1807     0.9583     0.9583    -0.0000
198 H      0.7987     1.0000     0.2013     0.9509     0.9509    -0.0000
199 H      0.7939     1.0000     0.2061     0.9494     0.9494    -0.0000
200 H      0.8197     1.0000     0.1803     0.9585     0.9585     0.0000
201 H      0.8209     1.0000     0.1791     0.9591     0.9591    -0.0000
202 H      0.7986     1.0000     0.2014     0.9509     0.9509     0.0000
203 H      0.7943     1.0000     0.2057     0.9495     0.9495     0.0000
204 H      0.8164     1.0000     0.1836     0.9613     0.9613    -0.0000
205 H      0.8169     1.0000     0.1831     0.9615     0.9615     0.0000
206 C      6.2853     6.0000    -0.2853     4.0552     4.0552    -0.0000
207 C      6.2869     6.0000    -0.2869     4.0557     4.0557     0.0000
208 C      6.2848     6.0000    -0.2848     4.0568     4.0568    -0.0000
209 C      5.8507     6.0000     0.1493     3.5389     3.5389     0.0000
210 C      6.2435     6.0000    -0.2435     3.7983     3.7983     0.0000
211 C      5.8484     6.0000     0.1516     3.5372     3.5372    -0.0000
212 C      6.2421     6.0000    -0.2421     3.7948     3.7948    -0.0000
213 C      5.8497     6.0000     0.1503     3.5408     3.5408    -0.0000
214 C      6.2435     6.0000    -0.2435     3.7983     3.7983    -0.0000
215 C      5.9074     6.0000     0.0926     3.3284     3.3284     0.0000
216 C      6.2205     6.0000    -0.2205     3.8173     3.8173     0.0000
217 C      6.1743     6.0000    -0.1743     3.7519     3.7519    -0.0000
218 C      5.7112     6.0000     0.2888     3.6369     3.6369    -0.0000
219 N      7.1734     7.0000    -0.1734     2.9852     2.9852     0.0000
220 C      6.1523     6.0000    -0.1523     3.9483     3.9483     0.0000
221 C      5.9113     6.0000     0.0887     3.3303     3.3303    -0.0000
222 C      6.2192     6.0000    -0.2192     3.8153     3.8153     0.0000
223 C      6.1736     6.0000    -0.1736     3.7511     3.7511    -0.0000
224 C      5.7128     6.0000     0.2872     3.6425     3.6425    -0.0000
225 N      7.1718     7.0000    -0.1718     2.9813     2.9813     0.0000
226 C      6.1524     6.0000    -0.1524     3.9492     3.9492    -0.0000
227 C      5.9071     6.0000     0.0929     3.3263     3.3263    -0.0000
228 C      6.1534     6.0000    -0.1534     3.9468     3.9468     0.0000
229 C      6.2208     6.0000    -0.2208     3.8174     3.8174    -0.0000
230 C      6.1749     6.0000    -0.1749     3.7527     3.7527    -0.0000
231 C      5.7116     6.0000     0.2884     3.6410     3.6410    -0.0000
232 N      7.1737     7.0000    -0.1737     2.9854     2.9854     0.0000
233 H      0.7984     1.0000     0.2016     0.9507     0.9507    -0.0000
234 H      0.7939     1.0000     0.2061     0.9494     0.9494     0.0000
235 H      0.7984     1.0000     0.2016     0.9507     0.9507     0.0000
236 H      0.7939     1.0000     0.2061     0.9494     0.9494     0.0000
237 H      0.8202     1.0000     0.1798     0.9588     0.9588    -0.0000
238 H      0.8195     1.0000     0.1805     0.9584     0.9584     0.0000
239 H      0.7984     1.0000     0.2016     0.9508     0.9508    -0.0000
240 H      0.7941     1.0000     0.2059     0.9494     0.9494    -0.0000
241 H      0.8162     1.0000     0.1838     0.9613     0.9613    -0.0000
242 H      0.8169     1.0000     0.1831     0.9615     0.9615     0.0000
243 H      0.8165     1.0000     0.1835     0.9614     0.9614     0.0000
244 H      0.8091     1.0000     0.1909     0.9547     0.9547    -0.0000
245 H      0.8086     1.0000     0.1914     0.9545     0.9545    -0.0000
246 H      0.8087     1.0000     0.1913     0.9545     0.9545     0.0000
247 H      0.8091     1.0000     0.1909     0.9547     0.9547     0.0000
248 H      0.8088     1.0000     0.1912     0.9545     0.9545     0.0000
249 H      0.8087     1.0000     0.1913     0.9545     0.9545    -0.0000
250 H      0.8093     1.0000     0.1907     0.9548     0.9548     0.0000
251 H      0.8085     1.0000     0.1915     0.9544     0.9544     0.0000
252 H      0.8091     1.0000     0.1909     0.9546     0.9546    -0.0000
253 H      0.8090     1.0000     0.1910     0.9547     0.9547     0.0000
254 H      0.8090     1.0000     0.1910     0.9546     0.9546    -0.0000
255 H      0.8095     1.0000     0.1905     0.9549     0.9549     0.0000
256 H      0.8167     1.0000     0.1833     0.9615     0.9615    -0.0000
257 H      0.8163     1.0000     0.1837     0.9613     0.9613     0.0000
258 H      0.8200     1.0000     0.1800     0.9587     0.9587     0.0000
259 H      0.8165     1.0000     0.1835     0.9613     0.9613    -0.0000
260 H      0.7926     1.0000     0.2074     1.0174     1.0174     0.0000
261 H      0.7917     1.0000     0.2083     1.0169     1.0169     0.0000
262 H      0.7929     1.0000     0.2071     1.0177     1.0177    -0.0000
263 H      0.7914     1.0000     0.2086     1.0170     1.0170     0.0000

  Mayer bond orders larger than 0.100000
B(  0-N ,  1-C ) :   0.8863 B(  0-N ,  3-C ) :   0.8870 B(  0-N ,  5-C ) :   0.8870 
B(  0-N ,260-H ) :   0.8485 B(  1-C ,  2-C ) :   0.8852 B(  1-C , 11-H ) :   0.9343 
B(  1-C , 12-H ) :   0.9225 B(  2-C ,  7-N ) :   0.8890 B(  2-C , 13-H ) :   0.9312 
B(  2-C , 14-H ) :   0.9448 B(  3-C ,  4-C ) :   0.8856 B(  3-C , 15-H ) :   0.9337 
B(  3-C , 16-H ) :   0.9231 B(  4-C ,  8-N ) :   0.8909 B(  4-C , 17-H ) :   0.9316 
B(  4-C , 18-H ) :   0.9433 B(  5-C ,  6-C ) :   0.8837 B(  5-C , 19-H ) :   0.9340 
B(  5-C , 20-H ) :   0.9230 B(  6-C ,  9-N ) :   0.8883 B(  6-C , 21-H ) :   0.9306 
B(  6-C , 22-H ) :   0.9447 B(  7-N , 23-C ) :   2.0004 B(  7-N , 41-C ) :  -0.1487 
B(  8-N ,129-C ) :   2.0012 B(  8-N ,147-C ) :  -0.1497 B(  9-N ,168-C ) :   1.9981 
B(  9-N ,186-C ) :  -0.1487 B( 23-C , 41-C ) :   0.9702 B( 23-C , 59-H ) :   0.8790 
B( 24-C , 35-C ) :   0.9689 B( 24-C , 69-N ) :   2.0036 B( 24-C ,256-H ) :   0.8798 
B( 25-C , 48-C ) :   0.9685 B( 25-C , 90-N ) :   2.0031 B( 25-C ,243-H ) :   0.8807 
B( 26-C , 27-C ) :   1.3983 B( 26-C , 31-C ) :   1.3547 B( 26-C , 32-C ) :   0.7496 
B( 27-C , 28-C ) :   1.3539 B( 27-C ,244-H ) :   0.9106 B( 28-C , 29-C ) :   1.3962 
B( 28-C , 38-C ) :   0.7508 B( 29-C , 30-C ) :   1.3531 B( 29-C ,245-H ) :   0.9105 
B( 30-C , 31-C ) :   1.3965 B( 30-C , 44-C ) :   0.7495 B( 31-C ,246-H ) :   0.9104 
B( 32-C , 33-C ) :   1.3371 B( 32-C , 37-C ) :   1.2763 B( 33-C , 34-C ) :   1.3790 
B( 33-C , 50-H ) :   0.9444 B( 34-C , 35-C ) :   1.3655 B( 34-C , 51-H ) :   0.9044 
B( 35-C , 36-N ) :   1.2329 B( 35-C , 69-N ) :  -0.1498 B( 36-N , 37-C ) :   1.4640 
B( 37-C , 52-H ) :   0.9275 B( 38-C , 39-C ) :   1.3348 B( 38-C , 43-C ) :   1.2804 
B( 39-C , 40-C ) :   1.3791 B( 39-C , 53-H ) :   0.9444 B( 40-C , 41-C ) :   1.3656 
B( 40-C , 54-H ) :   0.9045 B( 41-C , 42-N ) :   1.2317 B( 42-N , 43-C ) :   1.4629 
B( 43-C , 55-H ) :   0.9252 B( 44-C , 45-C ) :   1.2773 B( 44-C , 46-C ) :   1.3357 
B( 45-C , 49-N ) :   1.4623 B( 45-C , 56-H ) :   0.9268 B( 46-C , 47-C ) :   1.3791 
B( 46-C , 57-H ) :   0.9443 B( 47-C , 48-C ) :   1.3655 B( 47-C , 58-H ) :   0.9048 
B( 48-C , 49-N ) :   1.2309 B( 48-C , 90-N ) :  -0.1507 B( 60-N , 61-C ) :   0.8856 
B( 60-N , 63-C ) :   0.8855 B( 60-N , 65-C ) :   0.8855 B( 60-N ,261-H ) :   0.8485 
B( 61-C , 62-C ) :   0.8864 B( 61-C , 71-H ) :   0.9344 B( 61-C , 72-H ) :   0.9231 
B( 62-C , 67-N ) :   0.8863 B( 62-C , 73-H ) :   0.9315 B( 62-C , 74-H ) :   0.9443 
B( 63-C , 64-C ) :   0.8860 B( 63-C , 75-H ) :   0.9341 B( 63-C , 76-H ) :   0.9235 
B( 64-C , 68-N ) :   0.8897 B( 64-C , 77-H ) :   0.9318 B( 64-C , 78-H ) :   0.9432 
B( 65-C , 66-C ) :   0.8847 B( 65-C , 79-H ) :   0.9344 B( 65-C , 80-H ) :   0.9232 
B( 66-C , 69-N ) :   0.8876 B( 66-C , 81-H ) :   0.9448 B( 66-C , 82-H ) :   0.9314 
B( 67-N ,170-C ) :   2.0037 B( 67-N ,193-C ) :  -0.1511 B( 68-N ,208-C ) :   2.0015 
B( 68-N ,231-C ) :  -0.1503 B( 83-N , 84-C ) :   0.8860 B( 83-N , 86-C ) :   0.8857 
B( 83-N , 88-C ) :   0.8854 B( 83-N ,263-H ) :   0.8481 B( 84-C , 85-C ) :   0.8861 
B( 84-C , 94-H ) :   0.9344 B( 84-C , 95-H ) :   0.9228 B( 85-C , 90-N ) :   0.8890 
B( 85-C , 96-H ) :   0.9320 B( 85-C , 97-H ) :   0.9433 B( 86-C , 87-C ) :   0.8861 
B( 86-C , 98-H ) :   0.9345 B( 86-C , 99-H ) :   0.9228 B( 87-C , 91-N ) :   0.8887 
B( 87-C ,100-H ) :   0.9316 B( 87-C ,101-H ) :   0.9436 B( 88-C , 89-C ) :   0.8849 
B( 88-C ,102-H ) :   0.9347 B( 88-C ,103-H ) :   0.9229 B( 89-C , 92-N ) :   0.8891 
B( 89-C ,104-H ) :   0.9445 B( 89-C ,105-H ) :   0.9310 B( 91-N ,207-C ) :   2.0012 
B( 91-N ,218-C ) :  -0.1499 B( 92-N ,131-C ) :   2.0003 B( 92-N ,154-C ) :  -0.1493 
B(106-N ,107-C ) :   0.8853 B(106-N ,109-C ) :   0.8868 B(106-N ,111-C ) :   0.8859 
B(106-N ,262-H ) :   0.8485 B(107-C ,108-C ) :   0.8841 B(107-C ,117-H ) :   0.9340 
B(107-C ,118-H ) :   0.9235 B(108-C ,113-N ) :   0.8896 B(108-C ,119-H ) :   0.9316 
B(108-C ,120-H ) :   0.9442 B(109-C ,110-C ) :   0.8847 B(109-C ,121-H ) :   0.9342 
B(109-C ,122-H ) :   0.9233 B(110-C ,114-N ) :   0.8887 B(110-C ,123-H ) :   0.9309 
B(110-C ,124-H ) :   0.9438 B(111-C ,112-C ) :   0.8850 B(111-C ,125-H ) :   0.9343 
B(111-C ,126-H ) :   0.9232 B(112-C ,115-N ) :   0.8908 B(112-C ,127-H ) :   0.9442 
B(112-C ,128-H ) :   0.9316 B(113-N ,206-C ) :   2.0005 B(113-N ,224-C ) :  -0.1483 
B(114-N ,169-C ) :   1.9993 B(114-N ,180-C ) :  -0.1503 B(115-N ,130-C ) :   2.0001 
B(115-N ,141-C ) :  -0.1491 B(129-C ,147-C ) :   0.9710 B(129-C ,165-H ) :   0.8798 
B(130-C ,141-C ) :   0.9689 B(130-C ,166-H ) :   0.8800 B(131-C ,154-C ) :   0.9695 
B(131-C ,167-H ) :   0.8796 B(132-C ,133-C ) :   1.3559 B(132-C ,137-C ) :   1.3962 
B(132-C ,138-C ) :   0.7502 B(133-C ,134-C ) :   1.3980 B(133-C ,247-H ) :   0.9097 
B(134-C ,135-C ) :   1.3531 B(134-C ,144-C ) :   0.7506 B(135-C ,136-C ) :   1.3969 
B(135-C ,248-H ) :   0.9105 B(136-C ,137-C ) :   1.3530 B(136-C ,150-C ) :   0.7499 
B(137-C ,249-H ) :   0.9103 B(138-C ,139-C ) :   1.3345 B(138-C ,143-C ) :   1.2784 
B(139-C ,140-C ) :   1.3791 B(139-C ,156-H ) :   0.9442 B(140-C ,141-C ) :   1.3650 
B(140-C ,157-H ) :   0.9047 B(141-C ,142-N ) :   1.2326 B(142-N ,143-C ) :   1.4639 
B(143-C ,158-H ) :   0.9264 B(144-C ,145-C ) :   1.3357 B(144-C ,149-C ) :   1.2780 
B(145-C ,146-C ) :   1.3782 B(145-C ,159-H ) :   0.9442 B(146-C ,147-C ) :   1.3651 
B(146-C ,160-H ) :   0.9048 B(147-C ,148-N ) :   1.2307 B(148-N ,149-C ) :   1.4647 
B(149-C ,161-H ) :   0.9246 B(150-C ,151-C ) :   1.2785 B(150-C ,152-C ) :   1.3368 
B(151-C ,155-N ) :   1.4627 B(151-C ,162-H ) :   0.9266 B(152-C ,153-C ) :   1.3784 
B(152-C ,163-H ) :   0.9442 B(153-C ,154-C ) :   1.3667 B(153-C ,164-H ) :   0.9041 
B(154-C ,155-N ) :   1.2325 B(168-C ,186-C ) :   0.9698 B(168-C ,204-H ) :   0.8796 
B(169-C ,180-C ) :   0.9700 B(169-C ,259-H ) :   0.8801 B(170-C ,193-C ) :   0.9680 
B(170-C ,205-H ) :   0.8806 B(171-C ,172-C ) :   1.3975 B(171-C ,176-C ) :   1.3533 
B(171-C ,177-C ) :   0.7512 B(172-C ,173-C ) :   1.3545 B(172-C ,250-H ) :   0.9100 
B(173-C ,174-C ) :   1.3958 B(173-C ,183-C ) :   0.7509 B(174-C ,175-C ) :   1.3546 
B(174-C ,251-H ) :   0.9105 B(175-C ,176-C ) :   1.3971 B(175-C ,189-C ) :   0.7481 
B(176-C ,252-H ) :   0.9102 B(177-C ,178-C ) :   1.3348 B(177-C ,182-C ) :   1.2771 
B(178-C ,179-C ) :   1.3785 B(178-C ,195-H ) :   0.9444 B(179-C ,180-C ) :   1.3645 
B(179-C ,196-H ) :   0.9047 B(180-C ,181-N ) :   1.2315 B(181-N ,182-C ) :   1.4642 
B(182-C ,197-H ) :   0.9255 B(183-C ,184-C ) :   1.3342 B(183-C ,188-C ) :   1.2809 
B(184-C ,185-C ) :   1.3792 B(184-C ,198-H ) :   0.9441 B(185-C ,186-C ) :   1.3650 
B(185-C ,199-H ) :   0.9050 B(186-C ,187-N ) :   1.2319 B(187-N ,188-C ) :   1.4625 
B(188-C ,200-H ) :   0.9260 B(189-C ,190-C ) :   1.2796 B(189-C ,191-C ) :   1.3353 
B(190-C ,194-N ) :   1.4617 B(190-C ,201-H ) :   0.9267 B(191-C ,192-C ) :   1.3790 
B(191-C ,202-H ) :   0.9446 B(192-C ,193-C ) :   1.3655 B(192-C ,203-H ) :   0.9046 
B(193-C ,194-N ) :   1.2311 B(206-C ,224-C ) :   0.9708 B(206-C ,241-H ) :   0.8788 
B(207-C ,218-C ) :   0.9692 B(207-C ,257-H ) :   0.8804 B(208-C ,231-C ) :   0.9718 
B(208-C ,242-H ) :   0.8793 B(209-C ,210-C ) :   1.3972 B(209-C ,214-C ) :   1.3541 
B(209-C ,215-C ) :   0.7510 B(210-C ,211-C ) :   1.3552 B(210-C ,253-H ) :   0.9103 
B(211-C ,212-C ) :   1.3943 B(211-C ,221-C ) :   0.7499 B(212-C ,213-C ) :   1.3544 
B(212-C ,254-H ) :   0.9106 B(213-C ,214-C ) :   1.3978 B(213-C ,227-C ) :   0.7499 
B(214-C ,255-H ) :   0.9103 B(215-C ,216-C ) :   1.3348 B(215-C ,220-C ) :   1.2793 
B(216-C ,217-C ) :   1.3795 B(216-C ,233-H ) :   0.9444 B(217-C ,218-C ) :   1.3651 
B(217-C ,234-H ) :   0.9047 B(218-C ,219-N ) :   1.2322 B(219-N ,220-C ) :   1.4637 
B(220-C ,258-H ) :   0.9254 B(221-C ,222-C ) :   1.3336 B(221-C ,226-C ) :   1.2804 
B(222-C ,223-C ) :   1.3789 B(222-C ,235-H ) :   0.9445 B(223-C ,224-C ) :   1.3666 
B(223-C ,236-H ) :   0.9043 B(224-C ,225-N ) :   1.2310 B(225-N ,226-C ) :   1.4628 
B(226-C ,237-H ) :   0.9262 B(227-C ,228-C ) :   1.2777 B(227-C ,229-C ) :   1.3354 
B(228-C ,232-N ) :   1.4634 B(228-C ,238-H ) :   0.9258 B(229-C ,230-C ) :   1.3795 
B(229-C ,239-H ) :   0.9442 B(230-C ,231-C ) :   1.3656 B(230-C ,240-H ) :   0.9048 
B(231-C ,232-N ) :   1.2324 

-------
TIMINGS
-------

Total SCF time: 0 days 0 hours 32 min 10 sec 

Total time                  ....    1930.842 sec
Sum of individual times     ....    1886.543 sec  ( 97.7%)

Fock matrix formation       ....    1631.710 sec  ( 84.5%)
  Split-RI-J                ....     445.151 sec  ( 27.3% of F)
  XC integration            ....     433.580 sec  ( 26.6% of F)
    Basis function eval.    ....      67.012 sec  ( 15.5% of XC)
    Density eval.           ....     198.243 sec  ( 45.7% of XC)
    XC-Functional eval.     ....      22.145 sec  (  5.1% of XC)
    XC-Potential eval.      ....     118.955 sec  ( 27.4% of XC)
Diagonalization             ....      22.684 sec  (  1.2%)
Density matrix formation    ....       7.157 sec  (  0.4%)
Population analysis         ....       5.567 sec  (  0.3%)
Initial guess               ....      28.931 sec  (  1.5%)
Orbital Transformation      ....       0.000 sec  (  0.0%)
Orbital Orthonormalization  ....       0.000 sec  (  0.0%)
DIIS solution               ....      12.068 sec  (  0.6%)
SOSCF solution              ....      30.740 sec  (  1.6%)
Grid generation             ....     147.687 sec  (  7.6%)

Maximum memory used throughout the entire SCF-calculation: 4637.0 MB


-------------------------------------------------------------------------------
                          DFT DISPERSION CORRECTION                            
                                                                               
                                 DFTD4 V2.5                                    
-------------------------------------------------------------------------------
The R2SCAN3C composite method is recognized
Using three-body term ABC
Active option DFTDOPT                   ...         5   

Starting D4
-------------------------   ----------------
Dispersion correction           -0.187716145
-------------------------   ----------------

------------------   -----------------
gCP correction             0.170502218
------------------   -----------------

-------------------------   --------------------
FINAL SINGLE POINT ENERGY     -8881.028905738371
-------------------------   --------------------


                            ***************************************
                            *     ORCA property calculations      *
                            ***************************************

                                    ---------------------
                                    Active property flags
                                    ---------------------
   (+) Dipole Moment


------------------------------------------------------------------------------
                       ORCA ELECTRIC PROPERTIES CALCULATION
------------------------------------------------------------------------------

Dipole Moment Calculation                       ... on
Quadrupole Moment Calculation                   ... off
Polarizability Calculation                      ... off
GBWName                                         ... ORCA.gbw
Electron density                                ... ORCA.scfp
The origin for moment calculation is the CENTER OF MASS  = ( 3.579510,  3.880039  1.278718)

-------------
DIPOLE MOMENT
-------------
                                X             Y             Z
Electronic contribution:      0.05911      -0.01051      -0.09453
Nuclear contribution   :     -0.08147       0.03610       0.09669
                        -----------------------------------------
Total Dipole Moment    :     -0.02236       0.02560       0.00216
                        -----------------------------------------
Magnitude (a.u.)       :      0.03406
Magnitude (Debye)      :      0.08657



--------------------
Rotational spectrum 
--------------------
 
Rotational constants in cm-1:     0.000215     0.000214     0.000214 
Rotational constants in MHz :     6.433626     6.423832     6.409949 

 Dipole components along the rotational axes: 
x,y,z [a.u.] :    -0.032378    -0.000627    -0.010551 
x,y,z [Debye]:    -0.082299    -0.001593    -0.026819 

 

Timings for individual modules:

Sum of individual times         ...     1945.453 sec (=  32.424 min)
GTO integral calculation        ...       13.189 sec (=   0.220 min)   0.7 %
SCF iterations                  ...     1932.264 sec (=  32.204 min)  99.3 %
                             ****ORCA TERMINATED NORMALLY****
TOTAL RUN TIME: 0 days 0 hours 32 minutes 32 seconds 461 msec
