
                                 *****************
                                 * O   R   C   A *
                                 *****************

                                            #,                                       
                                            ###                                      
                                            ####                                     
                                            #####                                    
                                            ######                                   
                                           ########,                                 
                                     ,,################,,,,,                         
                               ,,#################################,,                 
                          ,,##########################################,,             
                       ,#########################################, ''#####,          
                    ,#############################################,,   '####,        
                  ,##################################################,,,,####,       
                ,###########''''           ''''###############################       
              ,#####''   ,,,,##########,,,,          '''####'''          '####       
            ,##' ,,,,###########################,,,                        '##       
           ' ,,###''''                  '''############,,,                           
         ,,##''                                '''############,,,,        ,,,,,,###''
      ,#''                                            '''#######################'''  
     '                                                          ''''####''''         
             ,#######,   #######,   ,#######,      ##                                
            ,#'     '#,  ##    ##  ,#'     '#,    #''#        ######   ,####,        
            ##       ##  ##   ,#'  ##            #'  '#       #        #'  '#        
            ##       ##  #######   ##           ,######,      #####,   #    #        
            '#,     ,#'  ##    ##  '#,     ,#' ,#      #,         ##   #,  ,#        
             '#######'   ##     ##  '#######'  #'      '#     #####' # '####'        



                  #######################################################
                  #                        -***-                        #
                  #          Department of theory and spectroscopy      #
                  #    Directorship and core code : Frank Neese         #
                  #        Max Planck Institute fuer Kohlenforschung    #
                  #                Kaiser Wilhelm Platz 1               #
                  #                 D-45470 Muelheim/Ruhr               #
                  #                      Germany                        #
                  #                                                     #
                  #                  All rights reserved                #
                  #                        -***-                        #
                  #######################################################


                         Program Version 5.0.4 -  RELEASE  -


 With contributions from (in alphabetic order):
   Daniel Aravena         : Magnetic Suceptibility
   Michael Atanasov       : Ab Initio Ligand Field Theory (pilot matlab implementation)
   Alexander A. Auer      : GIAO ZORA, VPT2 properties, NMR spectrum
   Ute Becker             : Parallelization
   Giovanni Bistoni       : ED, misc. LED, open-shell LED, HFLD
   Martin Brehm           : Molecular dynamics
   Dmytro Bykov           : SCF Hessian
   Vijay G. Chilkuri      : MRCI spin determinant printing, contributions to CSF-ICE
   Dipayan Datta          : RHF DLPNO-CCSD density
   Achintya Kumar Dutta   : EOM-CC, STEOM-CC
   Dmitry Ganyushin       : Spin-Orbit,Spin-Spin,Magnetic field MRCI
   Miquel Garcia          : C-PCM and meta-GGA Hessian, CC/C-PCM, Gaussian charge scheme
   Yang Guo               : DLPNO-NEVPT2, F12-NEVPT2, CIM, IAO-localization
   Andreas Hansen         : Spin unrestricted coupled pair/coupled cluster methods
   Benjamin Helmich-Paris : MC-RPA, TRAH-SCF, COSX integrals
   Lee Huntington         : MR-EOM, pCC
   Robert Izsak           : Overlap fitted RIJCOSX, COSX-SCS-MP3, EOM
   Marcus Kettner         : VPT2
   Christian Kollmar      : KDIIS, OOCD, Brueckner-CCSD(T), CCSD density, CASPT2, CASPT2-K
   Simone Kossmann        : Meta GGA functionals, TD-DFT gradient, OOMP2, MP2 Hessian
   Martin Krupicka        : Initial AUTO-CI
   Lucas Lang             : DCDCAS
   Marvin Lechner         : AUTO-CI (C++ implementation), FIC-MRCC
   Dagmar Lenk            : GEPOL surface, SMD
   Dimitrios Liakos       : Extrapolation schemes; Compound Job, initial MDCI parallelization
   Dimitrios Manganas     : Further ROCIS development; embedding schemes
   Dimitrios Pantazis     : SARC Basis sets
   Anastasios Papadopoulos: AUTO-CI, single reference methods and gradients
   Taras Petrenko         : DFT Hessian,TD-DFT gradient, ASA, ECA, R-Raman, ABS, FL, XAS/XES, NRVS
   Peter Pinski           : DLPNO-MP2, DLPNO-MP2 Gradient
   Christoph Reimann      : Effective Core Potentials
   Marius Retegan         : Local ZFS, SOC
   Christoph Riplinger    : Optimizer, TS searches, QM/MM, DLPNO-CCSD(T), (RO)-DLPNO pert. Triples
   Tobias Risthaus        : Range-separated hybrids, TD-DFT gradient, RPA, STAB
   Michael Roemelt        : Original ROCIS implementation
   Masaaki Saitow         : Open-shell DLPNO-CCSD energy and density
   Barbara Sandhoefer     : DKH picture change effects
   Avijit Sen             : IP-ROCIS
   Kantharuban Sivalingam : CASSCF convergence, NEVPT2, FIC-MRCI
   Bernardo de Souza      : ESD, SOC TD-DFT
   Georgi Stoychev        : AutoAux, RI-MP2 NMR, DLPNO-MP2 response
   Willem Van den Heuvel  : Paramagnetic NMR
   Boris Wezisla          : Elementary symmetry handling
   Frank Wennmohs         : Technical directorship


 We gratefully acknowledge several colleagues who have allowed us to
 interface, adapt or use parts of their codes:
   Stefan Grimme, W. Hujo, H. Kruse, P. Pracht,  : VdW corrections, initial TS optimization,
                  C. Bannwarth, S. Ehlert          DFT functionals, gCP, sTDA/sTD-DF
   Ed Valeev, F. Pavosevic, A. Kumar             : LibInt (2-el integral package), F12 methods
   Garnet Chan, S. Sharma, J. Yang, R. Olivares  : DMRG
   Ulf Ekstrom                                   : XCFun DFT Library
   Mihaly Kallay                                 : mrcc  (arbitrary order and MRCC methods)
   Jiri Pittner, Ondrej Demel                    : Mk-CCSD
   Frank Weinhold                                : gennbo (NPA and NBO analysis)
   Christopher J. Cramer and Donald G. Truhlar   : smd solvation model
   Lars Goerigk                                  : TD-DFT with DH, B97 family of functionals
   V. Asgeirsson, H. Jonsson                     : NEB implementation
   FAccTs GmbH                                   : IRC, NEB, NEB-TS, DLPNO-Multilevel, CI-OPT
                                                   MM, QMMM, 2- and 3-layer-ONIOM, Crystal-QMMM,
                                                   LR-CPCM, SF, NACMEs, symmetry and pop. for TD-DFT,
                                                   nearIR, NL-DFT gradient (VV10), updates on ESD,
                                                   ML-optimized integration grids
   S Lehtola, MJT Oliveira, MAL Marques          : LibXC Library
   Liviu Ungur et al                             : ANISO software


 Your calculation uses the libint2 library for the computation of 2-el integrals
 For citations please refer to: http://libint.valeyev.net

 Your ORCA version has been built with support for libXC version: 5.1.0
 For citations please refer to: https://tddft.org/programs/libxc/

 This ORCA versions uses:
   CBLAS   interface :  Fast vector & matrix operations
   LAPACKE interface :  Fast linear algebra routines
   SCALAPACK package :  Parallel linear algebra routines
   Shared memory     :  Shared parallel matrices
   BLAS/LAPACK       :  OpenBLAS 0.3.15  USE64BITINT DYNAMIC_ARCH NO_AFFINITY SkylakeX SINGLE_THREADED
        Core in use  :  SkylakeX
   Copyright (c) 2011-2014, The OpenBLAS Project




***************************************
The coordinates will be read from file: xtbopt.xyz
***************************************


Your calculation utilizes the geometrical counterpoise correction gCP
Please cite in your paper:
H.Kruse, S. Grimme J.Chem.Phys., 136, (2012), 154101 
   

Your calculation utilizes the atom-pairwise dispersion correction
based on tight binding partial charges (D4)
Cite in your paper:
E.Caldeweyher, C.Bannwarth, S.Grimme, J.Chem.Phys., (2017), 147, 034112.
E.Caldeweyher, S.Ehlert, A.Hansen, H.Neugebauer, S.Grimme, J.Chem.Phys., (2018), in progress.
   

Your calculation utilizes the SMD solvation module
Please cite in your paper:
A.V. Marenich, C.J. Cramer, D.G. Truhlar J. Phys. Chem. B, 113, (2009), 6378 

================================================================================

----- Orbital basis set information -----
Your calculation utilizes the basis: def2-mTZVPP
   Stefan Grimme, Andreas Hansen, Sebastian Ehlert, and Jan-Michael Mewes 
   J. Chem. Phys. 154, 000000 (2021). DOI: 10.1063/5.0040021

----- AuxJ basis set information -----
Your calculation utilizes the auxiliary basis: def2/J
   F. Weigend, Phys. Chem. Chem. Phys. 8, 1057 (2006).

================================================================================
                                        WARNINGS
                       Please study these warnings very carefully!
================================================================================

Using LibXC functional ID 497 : Re-regularized SCAN exchange by Furness et al
[ 1]  J. W. Furness, A. D. Kaplan, J. Ning, J. P. Perdew, and J. Sun, J. Phys. Chem. Lett. 11, 8208 (2020)
[ 2]  J. W. Furness, A. D. Kaplan, J. Ning, J. P. Perdew, and J. Sun, J. Phys. Chem. Lett. 11, 9248 (2020)
Using LibXC functional ID 498 : Re-regularized SCAN correlation by Furness et al
[ 1]  J. W. Furness, A. D. Kaplan, J. Ning, J. P. Perdew, and J. Sun, J. Phys. Chem. Lett. 11, 8208 (2020)
[ 2]  J. W. Furness, A. D. Kaplan, J. Ning, J. P. Perdew, and J. Sun, J. Phys. Chem. Lett. 11, 9248 (2020)
Using LibXC functional ID 497 : Re-regularized SCAN exchange by Furness et al
[ 1]  J. W. Furness, A. D. Kaplan, J. Ning, J. P. Perdew, and J. Sun, J. Phys. Chem. Lett. 11, 8208 (2020)
[ 2]  J. W. Furness, A. D. Kaplan, J. Ning, J. P. Perdew, and J. Sun, J. Phys. Chem. Lett. 11, 9248 (2020)
Using LibXC functional ID 498 : Re-regularized SCAN correlation by Furness et al
[ 1]  J. W. Furness, A. D. Kaplan, J. Ning, J. P. Perdew, and J. Sun, J. Phys. Chem. Lett. 11, 8208 (2020)
[ 2]  J. W. Furness, A. D. Kaplan, J. Ning, J. P. Perdew, and J. Sun, J. Phys. Chem. Lett. 11, 9248 (2020)

INFO   : the flag for use of the SHARK integral package has been found!

================================================================================
                                       INPUT FILE
================================================================================
NAME = ORCA.in
|  1> ! r2SCAN-3c ENERGY TightSCF defgrid3 def2/J
|  2> %maxcore 8000
|  3> %PAL NPROCS 10 END
|  4> %CPCM SMD TRUE
|  5>       SMDSOLVENT "MeCN"
|  6> END
|  7> *xyzfile 8 1  xtbopt.xyz
|  8> 
|  9>                          ****END OF INPUT****
================================================================================

                       ****************************
                       * Single Point Calculation *
                       ****************************

---------------------------------
CARTESIAN COORDINATES (ANGSTROEM)
---------------------------------
  N      5.975560    7.465479    7.789421
  C      6.289015    6.553364    8.921117
  C      5.267755    5.412964    8.964798
  C      7.193214    8.051919    7.169212
  C      7.757818    7.084296    6.125153
  C      4.957071    8.490318    8.140432
  C      4.091327    8.801176    6.916086
  N      5.263092    4.761714    7.684484
  N      6.721251    6.793630    5.174378
  N      3.510063    7.573482    6.449269
  Li     4.583246    5.615848    5.479149
  H      6.297371    7.112699    9.858230
  H      7.282235    6.128611    8.765509
  H      5.523731    4.735072    9.790803
  H      4.262395    5.806368    9.140535
  H      7.931921    8.277389    7.940337
  H      6.920820    8.984241    6.671543
  H      8.649172    7.533502    5.665754
  H      8.050403    6.141301    6.595932
  H      5.448675    9.389778    8.515248
  H      4.316956    8.094067    8.930661
  H      3.340231    9.554242    7.192208
  H      4.705162    9.205898    6.106383
  C      5.445616    3.514257    7.617229
  C      3.241416   -6.373042    0.760466
  C      7.927097    3.686713   -4.345235
  C      5.171725   -1.071175    1.223174
  C      5.142646   -0.450768    2.469196
  C      5.588691    0.859427    2.619144
  C      6.063826    1.550707    1.507970
  C      6.097453    0.943050    0.255975
  C      5.648109   -0.367611    0.120427
  C      4.711334   -2.459203    1.073847
  C      5.374588   -3.361553    0.242057
  C      4.889413   -4.651068    0.130589
  C      3.755331   -5.017341    0.860608
  N      3.122042   -4.157616    1.660149
  C      3.582457   -2.928201    1.758199
  C      5.567253    1.504979    3.939643
  C      5.898446    0.804438    5.099532
  C      5.852272    1.461324    6.314874
  C      5.485033    2.809442    6.346955
  N      5.171163    3.482503    5.238823
  C      5.208703    2.851613    4.084035
  C      6.610586    1.675297   -0.910638
  C      6.002603    1.557627   -2.167271
  C      7.717619    2.518352   -0.813007
  C      8.149874    3.189531   -1.941381
  C      7.473675    2.996817   -3.149196
  N      6.416834    2.188598   -3.245930
  H      6.266068   -3.069291   -0.291634
  H      5.386752   -5.370061   -0.501894
  H      3.016108   -2.269573    2.399645
  H      6.208074   -0.228449    5.052198
  H      6.108845    0.944257    7.226513
  H      4.921576    3.438639    3.224459
  H      5.128201    0.937662   -2.298279
  H      8.245194    2.632047    0.121611
  H      9.006776    3.843673   -1.894650
  H      5.599542    2.899570    8.510628
  N      1.171819   -8.021154    3.751740
  C      1.776406   -8.032112    5.110246
  C      2.847281   -6.941732    5.209212
  C     -0.270944   -8.381064    3.760184
  C     -1.112033   -7.136900    4.059763
  C      1.956357   -8.810682    2.765746
  C      1.865330   -8.152451    1.386018
  N      2.244280   -5.683846    4.867044
  N     -0.782769   -6.126784    3.093159
  N      2.311944   -6.792507    1.504768
  Li     1.323830   -4.916878    2.732440
  H      2.195070   -9.017297    5.322958
  H      0.996026   -7.824899    5.844583
  H      3.275105   -6.952128    6.221257
  H      3.651605   -7.129786    4.492169
  H     -0.453982   -9.168174    4.493754
  H     -0.545026   -8.760149    2.774034
  H     -2.175598   -7.412667    4.048095
  H     -0.869476   -6.740653    5.050019
  H      1.591536   -9.838912    2.738126
  H      3.001911   -8.825614    3.078550
  H      0.828067   -8.131527    1.039515
  H      2.458442   -8.738722    0.670533
  N      7.252410    2.171057   -7.976964
  C      8.390782    3.076797   -7.668534
  C      7.955073    4.123110   -6.638853
  C      7.686455    0.775927   -8.253062
  C      7.839189    0.011198   -6.935059
  C      6.352930    2.714008   -9.029243
  C      4.908488    2.291823   -8.744845
  N      7.446304    3.435320   -5.485148
  N      6.592552    0.082779   -6.225484
  N      4.562633    2.725918   -7.420166
  Li     5.453129    2.017759   -5.247973
  H      8.749569    3.548870   -8.584705
  H      9.205154    2.486574   -7.244761
  H      8.808846    4.775447   -6.408838
  H      7.146316    4.741134   -7.039280
  H      8.620829    0.782020   -8.816961
  H      6.923366    0.282804   -8.857802
  H      8.150432   -1.019565   -7.154295
  H      8.604984    0.477393   -6.308389
  H      6.679009    2.368322  -10.011713
  H      6.409405    3.803881   -9.012500
  H      4.815784    1.202162   -8.770921
  H      4.253882    2.713753   -9.520013
  N     -7.791143    5.136351   -1.356014
  C     -7.796707    5.516998   -2.793411
  C     -6.399240    5.983874   -3.210920
  C     -8.710545    4.007003   -1.055910
  C     -8.004908    2.676834   -1.334698
  C     -7.993919    6.299155   -0.451710
  C     -7.195992    6.095096    0.839384
  N     -5.464288    4.935797   -2.910177
  N     -6.790474    2.639929   -0.568630
  N     -5.819772    5.880447    0.488911
  Li    -4.774977    4.027441   -0.744986
  H     -8.541969    6.294697   -2.969136
  H     -8.066273    4.642317   -3.387988
  H     -6.415944    6.252120   -4.276380
  H     -6.103156    6.866639   -2.636942
  H     -9.622271    4.102351   -1.648199
  H     -8.981495    4.045122    0.000635
  H     -8.689844    1.851915   -1.094470
  H     -7.732627    2.602286   -2.391479
  H     -9.057530    6.427077   -0.243431
  H     -7.630648    7.199902   -0.949614
  H     -7.546064    5.204369    1.369043
  H     -7.342748    6.966701    1.492212
  C      6.933767    6.975050    3.943223
  C     -4.923370    6.606621    1.001669
  C      3.534469    3.437005   -7.243765
  C      0.517351    5.955466   -0.421366
  C      1.545770    6.200895    0.484242
  C      2.874882    6.010474    0.116192
  C      3.170523    5.566672   -1.169805
  C      2.152109    5.317796   -2.085864
  C      0.827602    5.513537   -1.704661
  C     -0.882951    6.168160   -0.027887
  C     -1.259483    7.246537    0.772980
  C     -2.589498    7.390259    1.120837
  C     -3.520072    6.457559    0.654651
  N     -3.163025    5.426933   -0.113326
  C     -1.894468    5.289463   -0.437391
  C      3.956544    6.283222    1.073367
  C      5.153016    6.877581    0.671519
  C      6.140568    7.099366    1.612861
  C      5.909029    6.733253    2.941619
  N      4.764429    6.168320    3.329399
  C      3.829346    5.950936    2.428512
  C      2.474359    4.860993   -3.445353
  C      3.500603    3.935485   -3.675872
  C      1.771164    5.324802   -4.557267
  C      2.111966    4.851647   -5.810562
  C      3.156940    3.931321   -5.930216
  N      3.833426    3.489350   -4.868862
  H     -0.531684    7.973594    1.099693
  H     -2.908538    8.218775    1.734031
  H     -1.660479    4.424551   -1.039962
  H      5.303000    7.180656   -0.353415
  H      7.073332    7.561814    1.329289
  H      2.935294    5.468819    2.794757
  H      4.064514    3.524130   -2.851921
  H      0.987059    6.058623   -4.449055
  H      1.587245    5.197917   -6.687554
  H      7.895126    7.340027    3.566178
  H     -5.156983    7.398443    1.721503
  H      2.881999    3.732320   -8.072490
  C      2.257188    7.485609    6.321012
  C     -6.567574    1.665289    0.202302
  C      2.323278   -4.713455    5.670776
  C     -1.888351    1.477074    3.383879
  C     -1.328824    2.673268    3.825077
  C     -0.165871    2.671746    4.590163
  C      0.438670    1.460108    4.913099
  C     -0.112181    0.256600    4.481812
  C     -1.273438    0.272463    3.714208
  C     -3.121104    1.485657    2.583214
  C     -4.118564    0.528607    2.770594
  C     -5.252091    0.578937    1.981183
  C     -5.372991    1.592758    1.026775
  N     -4.422123    2.511129    0.847749
  C     -3.339917    2.454870    1.595351
  C      0.416243    3.937988    5.057544
  C     -0.385087    4.985845    5.510788
  C      0.217799    6.159337    5.923368
  C      1.611314    6.259107    5.884648
  N      2.379954    5.255983    5.457615
  C      1.802061    4.142787    5.057605
  C      0.524233   -1.019167    4.839849
  C      0.611882   -2.071095    3.918995
  C      1.071684   -1.230367    6.105392
  C      1.671088   -2.444947    6.381530
  C      1.702892   -3.429488    5.390125
  N      1.174894   -3.231890    4.181184
  H     -4.021812   -0.228882    3.533352
  H     -6.040543   -0.146574    2.108831
  H     -2.593380    3.207540    1.389794
  H     -1.458105    4.879557    5.559750
  H     -0.378108    6.984122    6.282445
  H      2.470132    3.374349    4.697863
  H      0.224145   -1.957290    2.917605
  H      1.012552   -0.468318    6.867513
  H      2.098334   -2.636116    7.353754
  H      1.589299    8.324166    6.545695
  H      2.849705   -4.791775    6.628051
  C     -4.716679    4.485314   -3.822300
  C      6.027413   -0.980674   -5.846833
  C     -1.700728   -5.590560    2.412242
  C      1.045040   -0.833561   -3.163258
  C      0.153253    0.195469   -3.453092
  C     -1.068635    0.281119   -2.791543
  C     -1.394239   -0.672214   -1.830792
  C     -0.512479   -1.707319   -1.532289
  C      0.706296   -1.780970   -2.201106
  C      2.331026   -0.922696   -3.869674
  C      2.858150   -2.149633   -4.272947
  C      4.080125   -2.173760   -4.918616
  C      4.746830   -0.969305   -5.159641
  N      4.241418    0.205834   -4.781445
  C      3.081529    0.224345   -4.158932
  C     -2.009904    1.364466   -3.109904
  C     -2.207803    1.795942   -4.421556
  C     -3.094973    2.828821   -4.659892
  C     -3.775690    3.403926   -3.583239
  N     -3.593133    2.988462   -2.328822
  C     -2.741227    2.010112   -2.104473
  C     -0.868830   -2.717738   -0.525860
  C      0.083564   -3.215912    0.372743
  C     -2.167447   -3.216527   -0.421875
  C     -2.447645   -4.157055    0.551515
  C     -1.421255   -4.590687    1.395193
  N     -0.177576   -4.118984    1.294471
  H      2.315003   -3.066972   -4.104179
  H      4.508519   -3.108891   -5.244696
  H     -1.695070    1.319881   -5.243471
  H     -3.270240    3.178779   -5.665430
  H     -2.613919    1.732184   -1.068731
  H      1.099538   -2.850292    0.354857
  H     -2.940660   -2.892511   -1.101724
  H     -3.442773   -4.562149    0.650884
  H     -4.747215    4.875455   -4.845346
  H     -2.754070   -5.862387    2.539387
  H      8.722068    4.425826   -4.199030
  H      4.785522   -0.996222    3.327887
  H      6.422793    2.560920    1.622228
  H      5.684384   -0.846521   -0.844860
  H      1.312565    6.556208    1.475059
  H      4.198229    5.428771   -1.465138
  H      0.034759    5.335160   -2.413186
  H     -1.809219    3.607884    3.583745
  H      1.332751    1.454201    5.515718
  H     -1.708062   -0.658153    3.386182
  H      0.405828    0.923803   -4.207021
  H     -2.344700   -0.616176   -1.324912
  H      1.387556   -2.587159   -1.981162
  H      3.719336   -7.012132    0.010297
  H      6.462948   -1.968622   -6.031124
  H      2.732778    1.199836   -3.854124
  H     -7.270286    0.831260    0.303771
  H      5.537766    6.866242    7.051328
  H      1.217268   -7.027704    3.425345
  H     -6.826792    4.782066   -1.155994
  H      6.677171    2.125174   -7.103714

----------------------------
CARTESIAN COORDINATES (A.U.)
----------------------------
  NO LB      ZA    FRAG     MASS         X           Y           Z
   0 N     7.0000    0    14.007   11.292173   14.107712   14.719873
   1 C     6.0000    0    12.011   11.884515   12.384063   16.858469
   2 C     6.0000    0    12.011    9.954615   10.229020   16.941014
   3 C     6.0000    0    12.011   13.593205   15.215922   13.547848
   4 C     6.0000    0    12.011   14.660151   13.387379   11.574862
   5 C     6.0000    0    12.011    9.367506   16.044375   15.383187
   6 C     6.0000    0    12.011    7.731488   16.631812   13.069509
   7 N     7.0000    0    14.007    9.945803    8.998336   14.521569
   8 N     7.0000    0    14.007   12.701324   12.838100    9.778158
   9 N     7.0000    0    14.007    6.633057   14.311806   12.187353
  10 Li    3.0000    0     6.941    8.661081   10.612415   10.354092
  11 H     1.0000    0     1.008   11.900307   13.441053   18.629354
  12 H     1.0000    0     1.008   13.761430   11.581396   16.564412
  13 H     1.0000    0     1.008   10.438340    8.947989   18.501936
  14 H     1.0000    0     1.008    8.054759   10.972445   17.273107
  15 H     1.0000    0     1.008   14.989158   15.641999   15.005062
  16 H     1.0000    0     1.008   13.078454   16.977756   12.607389
  17 H     1.0000    0     1.008   16.344566   14.236255   10.706723
  18 H     1.0000    0     1.008   15.213058   11.605378   12.464504
  19 H     1.0000    0     1.008   10.296503   17.744110   16.091487
  20 H     1.0000    0     1.008    8.157865   15.295570   16.876504
  21 H     1.0000    0     1.008    6.312122   18.054901   13.591304
  22 H     1.0000    0     1.008    8.891468   17.396627   11.539392
  23 C     6.0000    0    12.011   10.290723    6.640983   14.394477
  24 C     6.0000    0    12.011    6.125388  -12.043305    1.437072
  25 C     6.0000    0    12.011   14.980043    6.966877   -8.211305
  26 C     6.0000    0    12.011    9.773143   -2.024227    2.311463
  27 C     6.0000    0    12.011    9.718193   -0.851828    4.666105
  28 C     6.0000    0    12.011   10.561095    1.624082    4.949465
  29 C     6.0000    0    12.011   11.458971    2.930411    2.849650
  30 C     6.0000    0    12.011   11.522516    1.782107    0.483722
  31 C     6.0000    0    12.011   10.673379   -0.694683    0.227574
  32 C     6.0000    0    12.011    8.903130   -4.647221    2.029276
  33 C     6.0000    0    12.011   10.156499   -6.352415    0.457422
  34 C     6.0000    0    12.011    9.239652   -8.789244    0.246777
  35 C     6.0000    0    12.011    7.096548   -9.481401    1.626312
  36 N     7.0000    0    14.007    5.899804   -7.856757    3.137227
  37 C     6.0000    0    12.011    6.769863   -5.533497    3.322514
  38 C     6.0000    0    12.011   10.520584    2.843999    7.444846
  39 C     6.0000    0    12.011   11.146448    1.520168    9.636719
  40 C     6.0000    0    12.011   11.059190    2.761503   11.933382
  41 C     6.0000    0    12.011   10.365211    5.309076   11.994007
  42 N     7.0000    0    14.007    9.772082    6.580978    9.899940
  43 C     6.0000    0    12.011    9.843022    5.388768    7.717707
  44 C     6.0000    0    12.011   12.492197    3.165852   -1.720856
  45 C     6.0000    0    12.011   11.343277    2.943489   -4.095549
  46 C     6.0000    0    12.011   14.584187    4.758996   -1.536361
  47 C     6.0000    0    12.011   15.401031    6.027341   -3.668678
  48 C     6.0000    0    12.011   14.123199    5.663164   -5.951118
  49 N     7.0000    0    14.007   12.126060    4.135851   -6.133919
  50 H     1.0000    0     1.008   11.841152   -5.800120   -0.551109
  51 H     1.0000    0     1.008   10.179487  -10.147944   -0.948442
  52 H     1.0000    0     1.008    5.699618   -4.288871    4.534672
  53 H     1.0000    0     1.008   11.731560   -0.431707    9.547271
  54 H     1.0000    0     1.008   11.544044    1.784387   13.656130
  55 H     1.0000    0     1.008    9.300430    6.498087    6.093344
  56 H     1.0000    0     1.008    9.690895    1.771925   -4.343118
  57 H     1.0000    0     1.008   15.581159    4.973847    0.229811
  58 H     1.0000    0     1.008   17.020339    7.263489   -3.580369
  59 H     1.0000    0     1.008   10.581600    5.479394   16.082756
  60 N     7.0000    0    14.007    2.214418  -15.157784    7.089761
  61 C     6.0000    0    12.011    3.356921  -15.178492    9.656966
  62 C     6.0000    0    12.011    5.380581  -13.117973    9.843985
  63 C     6.0000    0    12.011   -0.512011  -15.837915    7.105719
  64 C     6.0000    0    12.011   -2.101438  -13.486786    7.671839
  65 C     6.0000    0    12.011    3.696979  -16.649775    5.226502
  66 C     6.0000    0    12.011    3.524962  -15.405901    2.619194
  67 N     7.0000    0    14.007    4.241075  -10.740913    9.197380
  68 N     7.0000    0    14.007   -1.479220  -11.577945    5.845223
  69 N     7.0000    0    14.007    4.368941  -12.835978    2.843600
  70 Li    3.0000    0     6.941    2.501677   -9.291553    5.163564
  71 H     1.0000    0     1.008    4.148081  -17.040221   10.058932
  72 H     1.0000    0     1.008    1.882217  -14.786917   11.044661
  73 H     1.0000    0     1.008    6.189052  -13.137618   11.756471
  74 H     1.0000    0     1.008    6.900533  -13.473344    8.488969
  75 H     1.0000    0     1.008   -0.857901  -17.325338    8.491965
  76 H     1.0000    0     1.008   -1.029950  -16.554283    5.242165
  77 H     1.0000    0     1.008   -4.111283  -14.007910    7.649792
  78 H     1.0000    0     1.008   -1.643071  -12.737989    9.543153
  79 H     1.0000    0     1.008    3.007568  -18.592849    5.174308
  80 H     1.0000    0     1.008    5.672790  -16.677994    5.817617
  81 H     1.0000    0     1.008    1.564821  -15.366360    1.964399
  82 H     1.0000    0     1.008    4.645781  -16.513791    1.267124
  83 N     7.0000    0    14.007   13.705068    4.102704  -15.074277
  84 C     6.0000    0    12.011   15.856279    5.814304  -14.491429
  85 C     6.0000    0    12.011   15.032908    7.791548  -12.545615
  86 C     6.0000    0    12.011   14.525294    1.466290  -15.596026
  87 C     6.0000    0    12.011   14.813920    0.021161  -13.105362
  88 C     6.0000    0    12.011   12.005298    5.128732  -17.062796
  89 C     6.0000    0    12.011    9.275698    4.330917  -16.525362
  90 N     7.0000    0    14.007   14.071475    6.491814  -10.365428
  91 N     7.0000    0    14.007   12.458117    0.156431  -11.764459
  92 N     7.0000    0    14.007    8.622128    5.151238  -14.022082
  93 Li    3.0000    0     6.941   10.304920    3.813012   -9.917231
  94 H     1.0000    0     1.008   16.534290    6.706393  -16.222741
  95 H     1.0000    0     1.008   17.395219    4.698943  -13.690614
  96 H     1.0000    0     1.008   16.646306    9.024287  -12.110949
  97 H     1.0000    0     1.008   13.504580    8.959445  -13.302312
  98 H     1.0000    0     1.008   16.291006    1.477803  -16.661642
  99 H     1.0000    0     1.008   13.083266    0.534423  -16.738819
 100 H     1.0000    0     1.008   15.402084   -1.926699  -13.519659
 101 H     1.0000    0     1.008   16.261063    0.902142  -11.921127
 102 H     1.0000    0     1.008   12.621498    4.475479  -18.919395
 103 H     1.0000    0     1.008   12.112020    7.188294  -17.031156
 104 H     1.0000    0     1.008    9.100514    2.271756  -16.574638
 105 H     1.0000    0     1.008    8.038672    5.128250  -17.990217
 106 N     7.0000    0    14.007  -14.723127    9.706297   -2.562496
 107 C     6.0000    0    12.011  -14.733640   10.425615   -5.278781
 108 C     6.0000    0    12.011  -12.092811   11.307883   -6.067759
 109 C     6.0000    0    12.011  -16.460544    7.572139   -1.995381
 110 C     6.0000    0    12.011  -15.127084    5.058483   -2.522214
 111 C     6.0000    0    12.011  -15.106318   11.903679   -0.853608
 112 C     6.0000    0    12.011  -13.598454   11.518061    1.586205
 113 N     7.0000    0    14.007  -10.326008    9.327305   -5.499437
 114 N     7.0000    0    14.007  -12.832137    4.988743   -1.074555
 115 N     7.0000    0    14.007  -10.997775   11.112434    0.923907
 116 Li    3.0000    0     6.941   -9.023398    7.610761   -1.407819
 117 H     1.0000    0     1.008  -16.141982   11.895254   -5.610853
 118 H     1.0000    0     1.008  -15.243046    8.772708   -6.402369
 119 H     1.0000    0     1.008  -12.124377   11.814795   -8.081187
 120 H     1.0000    0     1.008  -11.533294   12.976066   -4.983098
 121 H     1.0000    0     1.008  -18.183456    7.752320   -3.114645
 122 H     1.0000    0     1.008  -16.972566    7.644173    0.001200
 123 H     1.0000    0     1.008  -16.421426    3.499612   -2.068249
 124 H     1.0000    0     1.008  -14.612547    4.917607   -4.519240
 125 H     1.0000    0     1.008  -17.116251   12.145416   -0.460018
 126 H     1.0000    0     1.008  -14.419835   13.605842   -1.794510
 127 H     1.0000    0     1.008  -14.259995    9.834832    2.587117
 128 H     1.0000    0     1.008  -13.875782   13.165158    2.819872
 129 C     6.0000    0    12.011   13.102920   13.180934    7.451611
 130 C     6.0000    0    12.011   -9.303821   12.484704    1.892880
 131 C     6.0000    0    12.011    6.679178    6.494999  -13.688732
 132 C     6.0000    0    12.011    0.977651   11.254201   -0.796266
 133 C     6.0000    0    12.011    2.921082   11.717993    0.915085
 134 C     6.0000    0    12.011    5.432740   11.358150    0.219570
 135 C     6.0000    0    12.011    5.991419   10.519485   -2.210611
 136 C     6.0000    0    12.011    4.066897   10.049178   -3.941712
 137 C     6.0000    0    12.011    1.563941   10.419076   -3.221343
 138 C     6.0000    0    12.011   -1.668536   11.656133   -0.052698
 139 C     6.0000    0    12.011   -2.380079   13.693971    1.460721
 140 C     6.0000    0    12.011   -4.893442   13.965565    2.118074
 141 C     6.0000    0    12.011   -6.651972   12.203019    1.237110
 142 N     7.0000    0    14.007   -5.977251   10.255416   -0.214156
 143 C     6.0000    0    12.011   -3.580026    9.995637   -0.826550
 144 C     6.0000    0    12.011    7.476784   11.873569    2.028369
 145 C     6.0000    0    12.011    9.737789   12.996744    1.268987
 146 C     6.0000    0    12.011   11.603991   13.415858    3.047866
 147 C     6.0000    0    12.011   11.166447   12.724004    5.558855
 148 N     7.0000    0    14.007    9.003466   11.656435    6.291651
 149 C     6.0000    0    12.011    7.236416   11.245640    4.589222
 150 C     6.0000    0    12.011    4.675862    9.185945   -6.510773
 151 C     6.0000    0    12.011    6.615181    7.436988   -6.946391
 152 C     6.0000    0    12.011    3.347016   10.062418   -8.611986
 153 C     6.0000    0    12.011    3.991037    9.168284  -10.980371
 154 C     6.0000    0    12.011    5.965753    7.429119  -11.206485
 155 N     7.0000    0    14.007    7.244125    6.593916   -9.200816
 156 H     1.0000    0     1.008   -1.004737   15.067910    2.078119
 157 H     1.0000    0     1.008   -5.496340   15.531233    3.276843
 158 H     1.0000    0     1.008   -3.137851    8.361189   -1.965244
 159 H     1.0000    0     1.008   10.021218   13.569472   -0.667858
 160 H     1.0000    0     1.008   13.366661   14.289757    2.511992
 161 H     1.0000    0     1.008    5.546901   10.334571    5.281325
 162 H     1.0000    0     1.008    7.680819    6.659641   -5.389349
 163 H     1.0000    0     1.008    1.865272   11.449139   -8.407496
 164 H     1.0000    0     1.008    2.999459    9.822640  -12.637646
 165 H     1.0000    0     1.008   14.919625   13.870640    6.739099
 166 H     1.0000    0     1.008   -9.745286   13.981030    3.253170
 167 H     1.0000    0     1.008    5.446190    7.053062  -15.254795
 168 C     6.0000    0    12.011    4.265467   14.145751   11.944981
 169 C     6.0000    0    12.011  -12.410916    3.146940    0.382296
 170 C     6.0000    0    12.011    4.390359   -8.907138   10.716214
 171 C     6.0000    0    12.011   -3.568467    2.791265    6.394604
 172 C     6.0000    0    12.011   -2.511114    5.051744    7.228348
 173 C     6.0000    0    12.011   -0.313450    5.048867    8.674151
 174 C     6.0000    0    12.011    0.828967    2.759205    9.284412
 175 C     6.0000    0    12.011   -0.211991    0.484904    8.469397
 176 C     6.0000    0    12.011   -2.406449    0.514881    7.018835
 177 C     6.0000    0    12.011   -5.898031    2.807485    4.881566
 178 C     6.0000    0    12.011   -7.782959    0.998922    5.235664
 179 C     6.0000    0    12.011   -9.925014    1.094032    3.743894
 180 C     6.0000    0    12.011  -10.153481    3.009877    1.940324
 181 N     7.0000    0    14.007   -8.356601    4.745346    1.602013
 182 C     6.0000    0    12.011   -6.311529    4.639031    3.014776
 183 C     6.0000    0    12.011    0.786585    7.441719    9.557373
 184 C     6.0000    0    12.011   -0.727708    9.421882   10.413880
 185 C     6.0000    0    12.011    0.411581   11.639460   11.193543
 186 C     6.0000    0    12.011    3.044942   11.827999   11.120374
 187 N     7.0000    0    14.007    4.497461    9.932368   10.313398
 188 C     6.0000    0    12.011    3.405401    7.828734    9.557489
 189 C     6.0000    0    12.011    0.990656   -1.925946    9.145990
 190 C     6.0000    0    12.011    1.156290   -3.913803    7.405828
 191 C     6.0000    0    12.011    2.025190   -2.325056   11.537518
 192 C     6.0000    0    12.011    3.157899   -4.620281   12.059343
 193 C     6.0000    0    12.011    3.217999   -6.480793   10.185859
 194 N     7.0000    0    14.007    2.220228   -6.107388    7.901294
 195 H     1.0000    0     1.008   -7.600124   -0.432524    6.677068
 196 H     1.0000    0     1.008  -11.414971   -0.276985    3.985114
 197 H     1.0000    0     1.008   -4.900777    6.061371    2.626330
 198 H     1.0000    0     1.008   -2.755419    9.221026   10.506405
 199 H     1.0000    0     1.008   -0.714521   13.198078   11.872101
 200 H     1.0000    0     1.008    4.667874    6.376595    8.877675
 201 H     1.0000    0     1.008    0.423573   -3.698742    5.513475
 202 H     1.0000    0     1.008    1.913446   -0.884993   12.977719
 203 H     1.0000    0     1.008    3.965277   -4.981537   13.896581
 204 H     1.0000    0     1.008    3.003340   15.730395   12.369570
 205 H     1.0000    0     1.008    5.385162   -9.055143   12.525201
 206 C     6.0000    0    12.011   -8.913232    8.476016   -7.223100
 207 C     6.0000    0    12.011   11.390160   -1.853205  -11.048912
 208 C     6.0000    0    12.011   -3.213911  -10.564628    4.558477
 209 C     6.0000    0    12.011    1.974840   -1.575202   -5.977692
 210 C     6.0000    0    12.011    0.289607    0.369383   -6.525398
 211 C     6.0000    0    12.011   -2.019427    0.531237   -5.275252
 212 C     6.0000    0    12.011   -2.634731   -1.270301   -3.459695
 213 C     6.0000    0    12.011   -0.968445   -3.226366   -2.895607
 214 C     6.0000    0    12.011    1.334705   -3.365546   -4.159488
 215 C     6.0000    0    12.011    4.405000   -1.743643   -7.312625
 216 C     6.0000    0    12.011    5.401121   -4.062218   -8.074701
 217 C     6.0000    0    12.011    7.710318   -4.107811   -9.294838
 218 C     6.0000    0    12.011    8.970209   -1.831721   -9.750309
 219 N     7.0000    0    14.007    8.015119    0.388970   -9.035621
 220 C     6.0000    0    12.011    5.823246    0.423951   -7.859242
 221 C     6.0000    0    12.011   -3.798168    2.578468   -5.876867
 222 C     6.0000    0    12.011   -4.172142    3.393839   -8.355530
 223 C     6.0000    0    12.011   -5.848651    5.345697   -8.805920
 224 C     6.0000    0    12.011   -7.135020    6.432487   -6.771341
 225 N     7.0000    0    14.007   -6.790037    5.647374   -4.400836
 226 C     6.0000    0    12.011   -5.180169    3.798561   -3.976877
 227 C     6.0000    0    12.011   -1.641851   -5.135781   -0.993731
 228 C     6.0000    0    12.011    0.157913   -6.077192    0.704382
 229 C     6.0000    0    12.011   -4.095881   -6.078355   -0.797228
 230 C     6.0000    0    12.011   -4.625378   -7.855695    1.042211
 231 C     6.0000    0    12.011   -2.685784   -8.675141    2.636532
 232 N     7.0000    0    14.007   -0.335571   -7.783753    2.446197
 233 H     1.0000    0     1.008    4.374721   -5.795738   -7.755775
 234 H     1.0000    0     1.008    8.519867   -5.874953   -9.911038
 235 H     1.0000    0     1.008   -3.203219    2.494213   -9.908724
 236 H     1.0000    0     1.008   -6.179858    6.007022  -10.706111
 237 H     1.0000    0     1.008   -4.939590    3.273353   -2.019609
 238 H     1.0000    0     1.008    2.077825   -5.386272    0.670582
 239 H     1.0000    0     1.008   -5.557042   -5.466053   -2.081956
 240 H     1.0000    0     1.008   -6.505899   -8.621213    1.229992
 241 H     1.0000    0     1.008   -8.970937    9.213274   -9.156378
 242 H     1.0000    0     1.008   -5.204438  -11.078306    4.798745
 243 H     1.0000    0     1.008   16.482321    8.363599   -7.935016
 244 H     1.0000    0     1.008    9.043325   -1.882587    6.288795
 245 H     1.0000    0     1.008   12.137319    4.839438    3.065567
 246 H     1.0000    0     1.008   10.741930   -1.599692   -1.596554
 247 H     1.0000    0     1.008    2.480389   12.389437    2.787458
 248 H     1.0000    0     1.008    7.933503   10.258890   -2.768710
 249 H     1.0000    0     1.008    0.065685   10.081990   -4.560260
 250 H     1.0000    0     1.008   -3.418929    6.817912    6.772296
 251 H     1.0000    0     1.008    2.518534    2.748041   10.423197
 252 H     1.0000    0     1.008   -3.227770   -1.243729    6.398956
 253 H     1.0000    0     1.008    0.766904    1.745735   -7.950117
 254 H     1.0000    0     1.008   -4.430841   -1.164405   -2.503721
 255 H     1.0000    0     1.008    2.622101   -4.889022   -3.743854
 256 H     1.0000    0     1.008    7.028526  -13.251009    0.019458
 257 H     1.0000    0     1.008   12.213201   -3.720157  -11.397173
 258 H     1.0000    0     1.008    5.164202    2.267361   -7.283239
 259 H     1.0000    0     1.008  -13.738850    1.570854    0.574044
 260 H     1.0000    0     1.008   10.464862   12.975316   13.325079
 261 H     1.0000    0     1.008    2.300302  -13.280437    6.472964
 262 H     1.0000    0     1.008  -12.900767    9.036795   -2.184512
 263 H     1.0000    0     1.008   12.618024    4.015998  -13.424073

--------------------------------
INTERNAL COORDINATES (ANGSTROEM)
--------------------------------
 N      0   0   0     0.000000000000     0.00000000     0.00000000
 C      1   0   0     1.486924624307     0.00000000     0.00000000
 C      2   1   0     1.531466706520   109.74989542     0.00000000
 C      1   2   3     1.487027702852   112.75152594   213.83780282
 C      4   1   2     1.531382229220   109.69833972    84.92652071
 C      1   2   3     1.486883802801   112.80088089    84.62873808
 C      6   1   2     1.531394099357   109.78030723   213.77674467
 N      3   2   1     1.436437986854   108.32149359    55.41392167
 N      5   4   1     1.436290431173   108.24626563    55.98311969
 N      7   6   1     1.436321690981   108.36811654    56.31598921
 Li    10   7   6     2.434170305658   129.68184999   293.82811627
 H      2   1   3     1.091377684786   109.92254131   237.34913031
 H      2   1   3     1.091382250877   108.78798065   118.85191810
 H      3   2   1     1.098792652884   108.99553994   178.75901918
 H      3   2   1     1.093800488085   110.46836294   297.72908751
 H      4   1   2     1.091401503947   109.93898249   322.26450370
 H      4   1   2     1.091374428113   108.82690349   203.75492434
 H      5   4   1     1.098792788115   109.01496134   179.31870531
 H      5   4   1     1.093835968448   110.48218527   298.32075777
 H      6   1   2     1.091417113271   109.91130504    91.13882425
 H      6   1   2     1.091431737311   108.80945629   332.64937190
 H      7   6   1     1.098861894940   108.94315847   179.63830709
 H      7   6   1     1.093714819646   110.47000734   298.63698324
 C      8   3   2     1.262531970309   119.66811562   125.77647968
 C     24   8   3    12.232432315932   143.36408364   154.88225888
 C      9   5   4    10.086131554759   126.93011115   156.09889495
 C     25  24   8     5.661271104245    30.20554944    51.49710517
 C     27  25  24     1.392236464215   118.90481864     0.96709079
 C     28  27  25     1.392139296105   120.60359964   181.02287729
 C     29  28  27     1.392238998943   119.38504501     0.15769684
 C     30  29  28     1.392073432410   120.61817240   359.89922727
 C     27  25  24     1.392118956554   121.68458497   182.24267382
 C     27  25  24     1.469993556595     2.00562178   137.09225034
 C     33  27  32     1.394996159230   121.49625269    39.12171344
 C     34  33  27     1.382268942960   118.98909931   180.60102339
 C     35  34  33     1.397578587047   119.15607115   359.54048437
 N     36  35  34     1.333959948317   121.96566051     0.24074491
 C     37  36  35     1.316457150113   118.71698630     0.13346264
 C     29  28  27     1.470004764460   120.35683739   180.57200500
 C     39  29  28     1.394915719624   121.52935997    39.03704468
 C     40  39  29     1.382276241010   118.97973079   180.41379697
 C     41  40  39     1.397610328860   119.16666501   359.54284781
 N     42  41  40     1.333972988118   121.96786181     0.29699422
 C     43  42  41     1.316422006736   118.69779965     0.09427182
 C     31  30  29     1.469855675097   120.31804624   180.49837947
 C     45  31  30     1.400934005044   121.23773936   219.30351137
 C     45  31  30     1.394918428349   121.50617988    39.07013717
 C     47  45  31     1.382227214170   118.98095747   180.48400527
 C     48  47  45     1.397569869837   119.15933167   359.48290883
 N     46  45  31     1.316516540385   123.92652916   179.96154437
 H     34  33  27     1.079342772131   120.82224245     1.95282133
 H     35  34  33     1.079041919123   120.47108162   180.32484602
 H     38  37  36     1.079812849214   115.49472750   178.51136658
 H     40  39  29     1.079336217254   120.81336670     1.77798975
 H     41  40  39     1.079015238228   120.47589560   180.33863847
 H     44  43  42     1.079774494229   115.48012630   178.54142268
 H     46  45  31     1.079860806306   120.56111123     1.21522340
 H     47  45  31     1.079246511999   120.81244785     1.79523873
 H     48  47  45     1.079057391799   120.48756601   180.32467976
 H     24   8   3     1.095305507753   122.09787642     0.63220339
 N     25  24   8     3.993397760866    90.40667249   241.22283912
 C     61  25  24     1.487005186299   118.46715717   311.52630503
 C     62  61  25     1.531500930578   109.76015433    21.65027490
 C     61  25  24     1.487001340911   127.37154569   117.17749021
 C     64  61  25     1.531378726412   109.71644499   278.36989122
 C     61  25  24     1.486955741733    56.56453400   211.73723907
 C     66  61  25     1.531405548052   109.74512198   323.98362420
 N     63  62  61     1.436302816915   108.33522394    55.87652737
 N     65  64  61     1.436339508511   108.28858211    55.80639473
 N     25  24   8     1.262479754603    94.05705869   257.02223362
 Li    37  36  35     2.227072273939   116.88420090   179.57061217
 H     62  61  25     1.091381754837   109.91824118   259.02510508
 H     62  61  25     1.091412117161   108.81887670   140.53995204
 H     63  62  61     1.098806414054   108.96743225   179.21923576
 H     63  62  61     1.093824841926   110.45075334   298.20612445
 H     64  61  25     1.091407497456   109.94326969   155.72133147
 H     64  61  25     1.091475436518   108.81861161    37.21112230
 H     65  64  61     1.098795949158   109.00479339   179.14866075
 H     65  64  61     1.093824992122   110.46435033   298.11690176
 H     66  61  25     1.091381880942   109.91704029   201.33719694
 H     66  61  25     1.091445512105   108.82341498    82.84660571
 H     67  66  61     1.093807336629   110.48728792   298.35075867
 H     67  66  61     1.098823536742   108.97968977   179.33758976
 N     26   9   5     3.992726259406   162.79002528   163.65062401
 C     84  26   9     1.487072158810    56.68661330   160.29160532
 C     85  84  26     1.531291761104   109.74432472   324.13120219
 C     84  26   9     1.486947796100   118.40697967   260.10176340
 C     87  84  26     1.531427140710   109.74476133    21.39330364
 C     84  26   9     1.486993950119   127.39326386    65.63458207
 C     89  84  26     1.531514332163   109.78205571   278.49379981
 N     26   9   5     1.262442675759   150.23100796   189.61108537
 N     88  87  84     1.436219100539   108.28526166    56.14489063
 N     90  89  84     1.436254661989   108.36480943    55.69770969
 Li    50  46  45     2.228472321427   124.28215071   180.30575265
 H     85  84  26     1.091306878487   109.93940507   201.45468616
 H     85  84  26     1.091397655775   108.80525063    82.96141424
 H     86  85  84     1.098808387225   108.98541039   179.14686950
 H     86  85  84     1.093792928017   110.50545398   298.16745456
 H     87  84  26     1.091363917596   109.91439645   258.76378402
 H     87  84  26     1.091413888677   108.82708087   140.25443656
 H     88  87  84     1.098821781760   108.96337544   179.45545901
 H     88  87  84     1.093844323993   110.49109104   298.46094096
 H     89  84  26     1.091363523965   109.91709012   155.87159823
 H     89  84  26     1.091463797631   108.81094786    37.38449907
 H     90  89  84     1.093908025747   110.49317250   298.01938689
 H     90  89  84     1.098826231997   108.96625227   179.05619370
 N     57  46  45    13.617132871464   125.64953018    92.24706201
 C    107  57  46     1.486953564567    90.89331873    87.47817591
 C    108 107  57     1.531404536634   109.76569340   327.76243342
 C    107  57  46     1.486871815820   111.49554219   202.46254212
 C    110 107  57     1.531338370056   109.76047471   343.94451750
 C    107  57  46     1.486942458347   114.36764491   331.87237997
 C    112 107  57     1.531421607079   109.72265503   315.95208212
 N    109 108 107     1.436330829580   108.32799302    56.12188247
 N    111 110 107     1.436339621868   108.35034586    55.79961465
 N    113 112 107     1.436275293490   108.26683557    55.85651566
 Li   114 109 108     2.447102863127   129.75283585   294.13657302
 H    108 107  57     1.091380556860   109.91435840   205.12585125
 H    108 107  57     1.091445884325   108.80683880    86.63847019
 H    109 108 107     1.098836312634   108.95967403   179.44630788
 H    109 108 107     1.093795828730   110.48739871   298.45546104
 H    110 107  57     1.091394364766   109.91717560   221.30733153
 H    110 107  57     1.091400583481   108.80644416   102.80223505
 H    111 110 107     1.098789545505   108.97070969   179.15310186
 H    111 110 107     1.093837343219   110.47448389   298.11034329
 H    112 107  57     1.091334999396   109.91572594   193.30275819
 H    112 107  57     1.091429215508   108.81752642    74.80699176
 H    113 112 107     1.093838907127   110.48638676   298.20609779
 H    113 112 107     1.098825953936   109.00170216   179.20227517
 C      9   5   4     1.262465753014   119.66847406   125.66608376
 C    116 113 112     1.262452684791   119.68854936   125.62301903
 C     93  90  89     1.262491860768   119.68380765   125.83730447
 C    117 114 109     5.641873897294   100.84391972   250.42814771
 C    133 117 114     1.392123373666   142.23541201   161.23325241
 C    134 133 117     1.392214035221   120.60859438   144.87534205
 C    135 134 133     1.392175103945   119.37582912   359.81434268
 C    136 135 134     1.392217361635   120.62704499     0.21044731
 C    137 136 135     1.392102985059   119.38476566   359.84320925
 C    133 117 114     1.470003101192    34.02770827    97.39291674
 C    139 133 117     1.395013185285   121.50894350   179.27718797
 C    140 139 133     1.382244324762   118.98412500   180.53511969
 C    141 140 139     1.397578385845   119.16662697   359.60877258
 N    142 141 140     1.333965020501   121.96691600     0.27533742
 C    143 142 141     1.316492537897   118.70525886     0.04909170
 C    135 134 133     1.469886836478   120.33113674   179.44021263
 C    145 135 134     1.395094870033   121.50646924   218.89628052
 C    146 145 135     1.382234595697   119.00816193   180.58757980
 C    147 146 145     1.397586232232   119.14966088   359.44693733
 N    148 147 146     1.334028625617   121.96815134     0.37122314
 C    149 148 147     1.316522656978   118.71307828     0.05039753
 C    137 136 135     1.469939832804   120.24721577   179.44870422
 C    151 137 136     1.401028303237   121.20102869    39.46746485
 C    151 137 136     1.394975340791   121.55773625   219.23617272
 C    153 151 137     1.382306079993   118.98649879   180.50471888
 C    154 153 151     1.397601418568   119.16759614   359.49181901
 N    152 151 137     1.316447156183   123.92889032   179.93703140
 H    140 139 133     1.079372889722   120.82891088     1.96654266
 H    141 140 139     1.078995849946   120.48866170   180.38905486
 H    144 143 142     1.079776184772   115.45625354   178.55924392
 H    146 145 135     1.079277278652   120.82100844     1.86045197
 H    147 146 145     1.079036817413   120.49081516   180.29833170
 H    150 149 148     1.079769536977   115.45012116   178.50331398
 H    152 151 137     1.079863100327   120.57128530     1.18012426
 H    153 151 137     1.079362589710   120.81928318     1.88210743
 H    154 153 151     1.079050573613   120.47466510   180.30980261
 H    130   9   5     1.095254425563   122.09722000     0.70333496
 H    131 116 113     1.095316331351   122.09413792     0.65145979
 H    132  93  90     1.095313419218   122.09124464     0.56340157
 C     10   7   6     1.262484231374   119.61175047   124.92842156
 C    115 111 110     1.262515385699   119.65594281   126.01405789
 C     68  63  62     1.262492327571   119.68430017   125.28395430
 C    159 144 143     5.320706095342    88.30750460   281.20599719
 C    172 159 144     1.392338803400    76.72220959   323.76570496
 C    173 172 159     1.392056020958   120.59336090   229.98556478
 C    174 173 172     1.392056764820   119.42335623     0.03293712
 C    175 174 173     1.392076687494   120.58209525   359.78141390
 C    176 175 174     1.392115389710   119.41048459     0.39547133
 C    172 159 144     1.469971373321    65.15359052    96.65651586
 C    178 172 159     1.394985826011   121.49830487   163.50721612
 C    179 178 172     1.382239198101   118.99144359   180.52898525
 C    180 179 178     1.397621349405   119.16664758   359.42853190
 N    181 180 179     1.334018306112   121.96230946     0.42262618
 C    182 181 180     1.316526885717   118.70463286     0.00000000
 C    174 173 172     1.469922134373   120.30838363   180.26534121
 C    184 174 173     1.394834849018   121.53068525    39.71008522
 C    185 184 174     1.382308076794   118.95867673   180.76104756
 C    186 185 184     1.397617955420   119.15653491   359.50998564
 N    187 186 185     1.333950496191   121.98574625     0.17764824
 C    188 187 186     1.316500075645   118.69839073     0.23833601
 C    176 175 174     1.469964133959   120.23494766   180.68244921
 C    190 176 175     1.400788557251   121.24631938   219.86649132
 C    190 176 175     1.394957422793   121.48545543    39.50505110
 C    192 190 176     1.382296469332   118.97611910   180.71871920
 C    193 192 190     1.397574930138   119.15327614   359.51921753
 N    191 190 176     1.316499290929   123.91590918   179.68547255
 H    179 178 172     1.079328485426   120.81852521     1.85723509
 H    180 179 178     1.079034816995   120.47609407   180.28344254
 H    183 182 181     1.079853538928   115.49325307   178.49434950
 H    185 184 174     1.079380801269   120.78881324     2.01875416
 H    186 185 184     1.079033403242   120.48842216   180.25998326
 H    189 188 187     1.079922208545   115.55286092   178.43685827
 H    191 190 176     1.079848886977   120.53124735     0.94964202
 H    192 190 176     1.079372073965   120.80924114     1.99561725
 H    193 192 190     1.079029338584   120.48829019   180.28086507
 H    169  10   7     1.095324623258   122.07281360     0.62797453
 H    171  68  63     1.095278081546   122.10832420     0.62339375
 C    114 109 108     1.262466523853   119.64105298   124.98547059
 C     92  88  87     1.262414905907   119.65498781   125.47900922
 C     69  65  64     1.262470689662   119.66875517   125.88572338
 C     57  46  45     4.534051409765   167.58980315   122.04401161
 C    210  57  46     1.392189031677   109.13732167   351.09086351
 C    211 210  57     1.392118155910   120.58254111   231.26171770
 C    212 211 210     1.392087002034   119.41483383     0.13707565
 C    213 212 211     1.392137471424   120.59900281   359.78833301
 C    210  57  46     1.392145701614   110.67890795   217.73486383
 C    210  57  46     1.469941395287    47.74084209   105.11923534
 C    216 210  57     1.394942204358   121.52432131   130.54031750
 C    217 216 210     1.382277765163   118.97645705   180.82163358
 C    218 217 216     1.397605341049   119.15836223   359.43685592
 N    219 218 217     1.333951137174   121.97599764     0.20939799
 C    220 219 218     1.316513750487   118.70208256     0.23162584
 C    212 211 210     1.470028182263   120.29384349   180.46862772
 C    222 212 211     1.394906898223   121.49615475    39.65547145
 C    223 222 212     1.382285811371   118.96795302   180.69520541
 C    224 223 222     1.397606045540   119.16017440   359.49748606
 N    225 224 223     1.333979036466   121.97818199     0.17247401
 C    226 225 224     1.316527206537   118.70149787     0.24570682
 C    214 213 212     1.469977289693   120.28781736   180.59379334
 C    228 214 213     1.400970360739   121.24994568   219.34821155
 C    228 214 213     1.394994078059   121.49874257    39.10992061
 C    230 228 214     1.382241117120   118.97937285   180.57041061
 C    231 230 228     1.397606906223   119.16661624   359.41811782
 N    229 228 214     1.316555569285   123.92657303   179.94011734
 H    217 216 210     1.079353274494   120.80892906     2.07732423
 H    218 217 216     1.079036743305   120.48129034   180.25503001
 H    223 222 212     1.079385799454   120.81038547     2.02259999
 H    224 223 222     1.079024649963   120.48252567   180.29490368
 H    227 226 225     1.079913032338   115.52952108   178.45976676
 H    229 228 214     1.079907301053   120.56723578     1.19215243
 H    230 228 214     1.079369423685   120.83578051     1.86866826
 H    231 230 228     1.079007288967   120.48186974   180.25401300
 H    207 114 109     1.095338382916   122.08685447     0.64149405
 H    209  69  65     1.095255185784   122.09071009     0.65586182
 H     26   9   5     1.095282660427    75.69499098   320.80330132
 H     28  27  25     1.078150397732   119.62207928     1.97850560
 H     30  29  28     1.078166815673   119.62183876   180.83402050
 H     32  27  25     1.078169158867   119.75055678   357.97530550
 H    134 133 117     1.078123651678   119.74566308   323.92959596
 H    136 135 134     1.078155411589   119.75080439   179.25060069
 H    138 137 136     1.078158145858   119.76510820   179.19626884
 H    173 172 159     1.078205639937   119.65239134    50.88723472
 H    175 174 173     1.078222838694   119.63921322   180.75046513
 H    177 176 175     1.078214098490   119.61477559   180.57082229
 H    211 210  57     1.078273336431   119.65546031    52.16099823
 H    213 212 211     1.078160409363   119.63171492   180.74391724
 H    215 210  57     1.078160751726   119.74284712   307.19199502
 H     25  24   8     1.095260636122   140.98097991    98.05737537
 H    208  92  88     1.095305975368   122.09688095     0.72523174
 H    221 220 219     1.079869031824   115.51230109   178.51415684
 H    170 115 111     1.095310120385   122.08170750     0.56776983
 H      1   2   3     1.046676374697   105.88394857   329.20618653
 H     61  25  24     1.046681333241    49.62353378    38.56912267
 H    107  57  46     1.046661204478    15.13966837   273.32596127
 H     84  26   9     1.046695178739    49.50711882   347.12722897

---------------------------
INTERNAL COORDINATES (A.U.)
---------------------------
 N      0   0   0     0.000000000000     0.00000000     0.00000000
 C      1   0   0     2.809880321723     0.00000000     0.00000000
 C      2   1   0     2.894052658542   109.74989542     0.00000000
 C      1   2   3     2.810075111944   112.75152594   213.83780282
 C      4   1   2     2.893893019580   109.69833972    84.92652071
 C      1   2   3     2.809803180257   112.80088089    84.62873808
 C      6   1   2     2.893915450888   109.78030723   213.77674467
 N      3   2   1     2.714474403516   108.32149359    55.41392167
 N      5   4   1     2.714195563688   108.24626563    55.98311969
 N      7   6   1     2.714254636164   108.36811654    56.31598921
 Li    10   7   6     4.599915241018   129.68184999   293.82811627
 H      2   1   3     2.062404932918   109.92254131   237.34913031
 H      2   1   3     2.062413561581   108.78798065   118.85191810
 H      3   2   1     2.076417191916   108.99553994   178.75901918
 H      3   2   1     2.066983367630   110.46836294   297.72908751
 H      4   1   2     2.062449944609   109.93898249   322.26450370
 H      4   1   2     2.062398778698   108.82690349   203.75492434
 H      5   4   1     2.076417447466   109.01496134   179.31870531
 H      5   4   1     2.067050415800   110.48218527   298.32075777
 H      6   1   2     2.062479441958   109.91130504    91.13882425
 H      6   1   2     2.062507077388   108.80945629   332.64937190
 H      7   6   1     2.076548040438   108.94315847   179.63830709
 H      7   6   1     2.066821477741   110.47000734   298.63698324
 C      8   3   2     2.385839659204   119.66811562   125.77647968
 C     24   8   3    23.115947028839   143.36408364   154.88225888
 C      9   5   4    19.060026389196   126.93011115   156.09889495
 C     25  24   8    10.698251956905    30.20554944    51.49710517
 C     27  25  24     2.630945631025   118.90481864     0.96709079
 C     28  27  25     2.630762009908   120.60359964   181.02287729
 C     29  28  27     2.630950420967   119.38504501     0.15769684
 C     30  29  28     2.630637545563   120.61817240   359.89922727
 C     27  25  24     2.630723573727   121.68458497   182.24267382
 C     27  25  24     2.777885240593     2.00562178   137.09225034
 C     33  27  32     2.636160698817   121.49625269    39.12171344
 C     34  33  27     2.612109745620   118.98909931   180.60102339
 C     35  34  33     2.641040780151   119.15607115   359.54048437
 N     36  35  34     2.520818975938   121.96566051     0.24074491
 C     37  36  35     2.487743480757   118.71698630     0.13346264
 C     29  28  27     2.777906420389   120.35683739   180.57200500
 C     39  29  28     2.636008689991   121.52935997    39.03704468
 C     40  39  29     2.612123536935   118.97973079   180.41379697
 C     41  40  39     2.641100763485   119.16666501   359.54284781
 N     42  41  40     2.520843617591   121.96786181     0.29699422
 C     43  42  41     2.487677069398   118.69779965     0.09427182
 C     31  30  29     2.777624682324   120.31804624   180.49837947
 C     45  31  30     2.647381601230   121.23773936   219.30351137
 C     45  31  30     2.636013808740   121.50617988    39.07013717
 C     47  45  31     2.612030889633   118.98095747   180.48400527
 C     48  47  45     2.641024307012   119.15933167   359.48290883
 N     46  45  31     2.487855712104   123.92652916   179.96154437
 H     34  33  27     2.039662243956   120.82224245     1.95282133
 H     35  34  33     2.039093714163   120.47108162   180.32484602
 H     38  37  36     2.040550560904   115.49472750   178.51136658
 H     40  39  29     2.039649857033   120.81336670     1.77798975
 H     41  40  39     2.039043294579   120.47589560   180.33863847
 H     44  43  42     2.040478080486   115.48012630   178.54142268
 H     46  45  31     2.040641186673   120.56111123     1.21522340
 H     47  45  31     2.039480338667   120.81244785     1.79523873
 H     48  47  45     2.039122953284   120.48756601   180.32467976
 H     24   8   3     2.069827442628   122.09787642     0.63220339
 N     25  24   8     7.546428111851    90.40667249   241.22283912
 C     61  25  24     2.810032561825   118.46715717   311.52630503
 C     62  61  25     2.894117332638   109.76015433    21.65027490
 C     61  25  24     2.810025295096   127.37154569   117.17749021
 C     64  61  25     2.893886400231   109.71644499   278.36989122
 C     61  25  24     2.809939125137    56.56453400   211.73723907
 C     66  61  25     2.893937085786   109.74512198   323.98362420
 N     63  62  61     2.714218969349   108.33522394    55.87652737
 N     65  64  61     2.714288306416   108.28858211    55.80639473
 N     25  24   8     2.385740985820    94.05705869   257.02223362
 Li    37  36  35     4.208556678194   116.88420090   179.57061217
 H     62  61  25     2.062412624201   109.91824118   259.02510508
 H     62  61  25     2.062470000677   108.81887670   140.53995204
 H     63  62  61     2.076443196758   108.96743225   179.21923576
 H     63  62  61     2.067029389721   110.45075334   298.20612445
 H     64  61  25     2.062461270699   109.94326969   155.72133147
 H     64  61  25     2.062589656922   108.81861161    37.21112230
 H     65  64  61     2.076423420971   109.00479339   179.14866075
 H     65  64  61     2.067029673549   110.46435033   298.11690176
 H     66  61  25     2.062412862505   109.91704029   201.33719694
 H     66  61  25     2.062533107976   108.82341498    82.84660571
 H     67  66  61     2.066996309503   110.48728792   298.35075867
 H     67  66  61     2.076475553950   108.97968977   179.33758976
 N     26   9   5     7.545159157993   162.79002528   163.65062401
 C     84  26   9     2.810159121530    56.68661330   160.29160532
 C     85  84  26     2.893722059617   109.74432472   324.13120219
 C     84  26   9     2.809924110067   118.40697967   260.10176340
 C     87  84  26     2.893977889996   109.74476133    21.39330364
 C     84  26   9     2.810011328522   127.39326386    65.63458207
 C     89  84  26     2.894142657964   109.78205571   278.49379981
 N     26   9   5     2.385670916959   150.23100796   189.61108537
 N     88  87  84     2.714060768325   108.28526166    56.14489063
 N     90  89  84     2.714127969727   108.36480943    55.69770969
 Li    50  46  45     4.211202384520   124.28215071   180.30575265
 H     85  84  26     2.062271128406   109.93940507   201.45468616
 H     85  84  26     2.062442672619   108.80525063    82.96141424
 H     86  85  84     2.076446925511   108.98541039   179.14686950
 H     86  85  84     2.066969081173   110.50545398   298.16745456
 H     87  84  26     2.062378916700   109.91439645   258.76378402
 H     87  84  26     2.062473348357   108.82708087   140.25443656
 H     88  87  84     2.076472237515   108.96337544   179.45545901
 H     88  87  84     2.067066205490   110.49109104   298.46094096
 H     89  84  26     2.062378172844   109.91709012   155.87159823
 H     89  84  26     2.062567662613   108.81094786    37.38449907
 H     90  89  84     2.067186584361   110.49317250   298.01938689
 H     90  89  84     2.076480647244   108.96625227   179.05619370
 N     57  46  45    25.732651856283   125.64953018    92.24706201
 C    107  57  46     2.809935010890    90.89331873    87.47817591
 C    108 107  57     2.893935174483   109.76569340   327.76243342
 C    107  57  46     2.809780528146   111.49554219   202.46254212
 C    110 107  57     2.893810137771   109.76047471   343.94451750
 C    107  57  46     2.809914023176   114.36764491   331.87237997
 C    112 107  57     2.893967432950   109.72265503   315.95208212
 N    109 108 107     2.714271905614   108.32799302    56.12188247
 N    111 110 107     2.714288520630   108.35034586    55.79961465
 N    113 112 107     2.714166957614   108.26683557    55.85651566
 Li   114 109 108     4.624354232844   129.75283585   294.13657302
 H    108 107  57     2.062410360352   109.91435840   205.12585125
 H    108 107  57     2.062533811369   108.80683880    86.63847019
 H    109 108 107     2.076499696886   108.95967403   179.44630788
 H    109 108 107     2.066974562726   110.48739871   298.45546104
 H    110 107  57     2.062436453512   109.91717560   221.30733153
 H    110 107  57     2.062448205182   108.80644416   102.80223505
 H    111 110 107     2.076411319819   108.97070969   179.15310186
 H    111 110 107     2.067053013740   110.47448389   298.11034329
 H    112 107  57     2.062324269221   109.91572594   193.30275819
 H    112 107  57     2.062502311870   108.81752642    74.80699176
 H    113 112 107     2.067055969098   110.48638676   298.20609779
 H    113 112 107     2.076480121783   109.00170216   179.20227517
 C      9   5   4     2.385714526651   119.66847406   125.66608376
 C    116 113 112     2.385689831289   119.68854936   125.62301903
 C     93  90  89     2.385763863157   119.68380765   125.83730447
 C    117 114 109    10.661596548005   100.84391972   250.42814771
 C    133 117 114     2.630731920860   142.23541201   161.23325241
 C    134 133 117     2.630903246369   120.60859438   144.87534205
 C    135 134 133     2.630829676920   119.37582912   359.81434268
 C    136 135 134     2.630909532381   120.62704499     0.21044731
 C    137 136 135     2.630693391976   119.38476566   359.84320925
 C    133 117 114     2.777903277268    34.02770827    97.39291674
 C    139 133 117     2.636192873398   121.50894350   179.27718797
 C    140 139 133     2.612063223967   118.98412500   180.53511969
 C    141 140 139     2.641040399935   119.16662697   359.60877258
 N    142 141 140     2.520828560977   121.96691600     0.27533742
 C    143 142 141     2.487810353976   118.70525886     0.04909170
 C    135 134 133     2.777683568800   120.33113674   179.44021263
 C    145 135 134     2.636347235201   121.50646924   218.89628052
 C    146 145 135     2.612044838699   119.00816193   180.58757980
 C    147 146 145     2.641055227457   119.14966088   359.44693733
 N    148 147 146     2.520948757227   121.96815134     0.37122314
 C    149 148 147     2.487867270792   118.71307828     0.05039753
 C    137 136 135     2.777783717342   120.24721577   179.44870422
 C    151 137 136     2.647559798990   121.20102869    39.46746485
 C    151 137 136     2.636121357668   121.55773625   219.23617272
 C    153 151 137     2.612179924440   118.98649879   180.50471888
 C    154 153 151     2.641083925474   119.16759614   359.49181901
 N    152 151 137     2.487724594966   123.92889032   179.93703140
 H    140 139 133     2.039719157955   120.82891088     1.96654266
 H    141 140 139     2.039006656035   120.48866170   180.38905486
 H    144 143 142     2.040481275150   115.45625354   178.55924392
 H    146 145 135     2.039538479215   120.82100844     1.86045197
 H    147 146 145     2.039084073329   120.49081516   180.29833170
 H    150 149 148     2.040468712638   115.45012116   178.50331398
 H    152 151 137     2.040645521745   120.57128530     1.18012426
 H    153 151 137     2.039699693752   120.81928318     1.88210743
 H    154 153 151     2.039110068780   120.47466510   180.30980261
 H    130   9   5     2.069730911279   122.09722000     0.70333496
 H    131 116 113     2.069847896264   122.09413792     0.65145979
 H    132  93  90     2.069842393131   122.09124464     0.56340157
 C     10   7   6     2.385749445690   119.61175047   124.92842156
 C    115 111 110     2.385808318833   119.65594281   126.01405789
 C     68  63  62     2.385764745286   119.68430017   125.28395430
 C    159 144 143    10.054677359281    88.30750460   281.20599719
 C    172 159 144     2.631139024058    76.72220959   323.76570496
 C    173 172 159     2.630604642686   120.59336090   229.98556478
 C    174 173 172     2.630606048382   119.42335623     0.03293712
 C    175 174 173     2.630643696779   120.58209525   359.78141390
 C    176 175 174     2.630716833369   119.41048459     0.39547133
 C    172 159 144     2.777843320282    65.15359052    96.65651586
 C    178 172 159     2.636141171863   121.49830487   163.50721612
 C    179 178 172     2.612053535982   118.99144359   180.52898525
 C    180 179 178     2.641121589297   119.16664758   359.42853190
 N    181 180 179     2.520929256189   121.96230946     0.42262618
 C    182 181 180     2.487875261949   118.70463286     0.00000000
 C    174 173 172     2.777750272153   120.30838363   180.26534121
 C    184 174 173     2.635855866694   121.53068525    39.71008522
 C    185 184 174     2.612183697848   118.95867673   180.76104756
 C    186 185 184     2.641115175596   119.15653491   359.50998564
 N    187 186 185     2.520801114010   121.98574625     0.17764824
 C    188 187 186     2.487824598255   118.69839073     0.23833601
 C    176 175 174     2.777829639870   120.23494766   180.68244921
 C    190 176 175     2.647106744736   121.24631938   219.86649132
 C    190 176 175     2.636087497559   121.48545543    39.50505110
 C    192 190 176     2.612161762925   118.97611910   180.71871920
 C    193 192 190     2.641033869595   119.15327614   359.51921753
 N    191 190 176     2.487823115357   123.91590918   179.68547255
 H    179 178 172     2.039635245995   120.81852521     1.85723509
 H    180 179 178     2.039080293087   120.47609407   180.28344254
 H    183 182 181     2.040627453319   115.49325307   178.49434950
 H    185 184 174     2.039734108610   120.78881324     2.01875416
 H    186 185 184     2.039077621480   120.48842216   180.25998326
 H    189 188 187     2.040757220089   115.55286092   178.43685827
 H    191 190 176     2.040618662406   120.53124735     0.94964202
 H    192 190 176     2.039717616396   120.80924114     1.99561725
 H    193 192 190     2.039069940389   120.48829019   180.28086507
 H    169  10   7     2.069863565698   122.07281360     0.62797453
 H    171  68  63     2.069775614609   122.10832420     0.62339375
 C    114 109 108     2.385715983326   119.64105298   124.98547059
 C     92  88  87     2.385618439544   119.65498781   125.47900922
 C     69  65  64     2.385723855564   119.66875517   125.88572338
 C     57  46  45     8.568115441576   167.58980315   122.04401161
 C    210  57  46     2.630855996518   109.13732167   351.09086351
 C    211 210  57     2.630722060729   120.58254111   231.26171770
 C    212 211 210     2.630663188436   119.41483383     0.13707565
 C    213 212 211     2.630758561761   120.59900281   359.78833301
 C    210  57  46     2.630774114566   110.67890795   217.73486383
 C    210  57  46     2.777786670007    47.74084209   105.11923534
 C    216 210  57     2.636058738884   121.52432131   130.54031750
 C    217 216 210     2.612126417168   118.97645705   180.82163358
 C    218 217 216     2.641091337888   119.15836223   359.43685592
 N    219 218 217     2.520802325291   121.97599764     0.20939799
 C    220 219 218     2.487850439962   118.70208256     0.23162584
 C    212 211 210     2.777950673623   120.29384349   180.46862772
 C    222 212 211     2.635992019959   121.49615475    39.65547145
 C    223 222 212     2.612141622297   118.96795302   180.69520541
 C    224 223 222     2.641092669183   119.16017440   359.49748606
 N    225 224 223     2.520855047313   121.97818199     0.17247401
 C    226 225 224     2.487875868211   118.70149787     0.24570682
 C    214 213 212     2.777854500604   120.28781736   180.59379334
 C    228 214 213     2.647450303537   121.24994568   219.34821155
 C    228 214 213     2.636156765973   121.49874257    39.10992061
 C    230 228 214     2.612057162402   118.97937285   180.57041061
 C    231 230 228     2.641094295639   119.16661624   359.41811782
 N    229 228 214     2.487929466038   123.92657303   179.94011734
 H    217 216 210     2.039682090544   120.80892906     2.07732423
 H    218 217 216     2.039083933285   120.48129034   180.25503001
 H    223 222 212     2.039743553813   120.81038547     2.02259999
 H    224 223 222     2.039061080180   120.48252567   180.29490368
 H    227 226 225     2.040739879571   115.52952108   178.45976676
 H    229 228 214     2.040729049013   120.56723578     1.19215243
 H    230 228 214     2.039712608093   120.83578051     1.86866826
 H    231 230 228     2.039028272653   120.48186974   180.25401300
 H    207 114 109     2.069889567683   122.08685447     0.64149405
 H    209  69  65     2.069732347890   122.09071009     0.65586182
 H     26   9   5     2.069784267440    75.69499098   320.80330132
 H     28  27  25     2.037408982892   119.62207928     1.97850560
 H     30  29  28     2.037440008303   119.62183876   180.83402050
 H     32  27  25     2.037444436299   119.75055678   357.97530550
 H    134 133 117     2.037358440174   119.74566308   323.92959596
 H    136 135 134     2.037418457709   119.75080439   179.25060069
 H    138 137 136     2.037423624728   119.76510820   179.19626884
 H    173 172 159     2.037513375530   119.65239134    50.88723472
 H    175 174 173     2.037545876472   119.63921322   180.75046513
 H    177 176 175     2.037529359880   119.61477559   180.57082229
 H    211 210  57     2.037641303364   119.65546031    52.16099823
 H    213 212 211     2.037427902133   119.63171492   180.74391724
 H    215 210  57     2.037428549105   119.74284712   307.19199502
 H     25  24   8     2.069742647536   140.98097991    98.05737537
 H    208  92  88     2.069828326294   122.09688095     0.72523174
 H    221 220 219     2.040656730649   115.51230109   178.51415684
 H    170 115 111     2.069836159240   122.08170750     0.56776983
 H      1   2   3     1.977931699024   105.88394857   329.20618653
 H     61  25  24     1.977941069313    49.62353378    38.56912267
 H    107  57  46     1.977903031464    15.13966837   273.32596127
 H     84  26   9     1.977967233513    49.50711882   347.12722897

---------------------
BASIS SET INFORMATION
---------------------
There are 4 groups of distinct atoms

 Group   1 Type N   : 11s6p2d contracted to 5s3p2d pattern {62111/411/11}
 Group   2 Type C   : 11s6p1d contracted to 5s3p1d pattern {62111/411/1}
 Group   3 Type Li  : 11s3p contracted to 5s2p pattern {62111/21}
 Group   4 Type H   : 4s1p contracted to 2s1p pattern {31/1}

Atom   0N    basis set group =>   1
Atom   1C    basis set group =>   2
Atom   2C    basis set group =>   2
Atom   3C    basis set group =>   2
Atom   4C    basis set group =>   2
Atom   5C    basis set group =>   2
Atom   6C    basis set group =>   2
Atom   7N    basis set group =>   1
Atom   8N    basis set group =>   1
Atom   9N    basis set group =>   1
Atom  10Li   basis set group =>   3
Atom  11H    basis set group =>   4
Atom  12H    basis set group =>   4
Atom  13H    basis set group =>   4
Atom  14H    basis set group =>   4
Atom  15H    basis set group =>   4
Atom  16H    basis set group =>   4
Atom  17H    basis set group =>   4
Atom  18H    basis set group =>   4
Atom  19H    basis set group =>   4
Atom  20H    basis set group =>   4
Atom  21H    basis set group =>   4
Atom  22H    basis set group =>   4
Atom  23C    basis set group =>   2
Atom  24C    basis set group =>   2
Atom  25C    basis set group =>   2
Atom  26C    basis set group =>   2
Atom  27C    basis set group =>   2
Atom  28C    basis set group =>   2
Atom  29C    basis set group =>   2
Atom  30C    basis set group =>   2
Atom  31C    basis set group =>   2
Atom  32C    basis set group =>   2
Atom  33C    basis set group =>   2
Atom  34C    basis set group =>   2
Atom  35C    basis set group =>   2
Atom  36N    basis set group =>   1
Atom  37C    basis set group =>   2
Atom  38C    basis set group =>   2
Atom  39C    basis set group =>   2
Atom  40C    basis set group =>   2
Atom  41C    basis set group =>   2
Atom  42N    basis set group =>   1
Atom  43C    basis set group =>   2
Atom  44C    basis set group =>   2
Atom  45C    basis set group =>   2
Atom  46C    basis set group =>   2
Atom  47C    basis set group =>   2
Atom  48C    basis set group =>   2
Atom  49N    basis set group =>   1
Atom  50H    basis set group =>   4
Atom  51H    basis set group =>   4
Atom  52H    basis set group =>   4
Atom  53H    basis set group =>   4
Atom  54H    basis set group =>   4
Atom  55H    basis set group =>   4
Atom  56H    basis set group =>   4
Atom  57H    basis set group =>   4
Atom  58H    basis set group =>   4
Atom  59H    basis set group =>   4
Atom  60N    basis set group =>   1
Atom  61C    basis set group =>   2
Atom  62C    basis set group =>   2
Atom  63C    basis set group =>   2
Atom  64C    basis set group =>   2
Atom  65C    basis set group =>   2
Atom  66C    basis set group =>   2
Atom  67N    basis set group =>   1
Atom  68N    basis set group =>   1
Atom  69N    basis set group =>   1
Atom  70Li   basis set group =>   3
Atom  71H    basis set group =>   4
Atom  72H    basis set group =>   4
Atom  73H    basis set group =>   4
Atom  74H    basis set group =>   4
[...]
172 C      6.2553     6.0000    -0.2553     3.7867     3.7867    -0.0000
173 C      5.8423     6.0000     0.1577     3.5258     3.5258     0.0000
174 C      6.2553     6.0000    -0.2553     3.7853     3.7853    -0.0000
175 C      5.8434     6.0000     0.1566     3.5269     3.5269    -0.0000
176 C      6.2536     6.0000    -0.2536     3.7855     3.7855    -0.0000
177 C      5.9069     6.0000     0.0931     3.2956     3.2956    -0.0000
178 C      6.2354     6.0000    -0.2354     3.7967     3.7967    -0.0000
179 C      6.2079     6.0000    -0.2079     3.7829     3.7829    -0.0000
180 C      5.6959     6.0000     0.3041     3.6113     3.6113    -0.0000
181 N      7.1166     7.0000    -0.1166     2.9281     2.9281    -0.0000
182 C      6.1617     6.0000    -0.1617     3.9608     3.9608    -0.0000
183 C      5.9082     6.0000     0.0918     3.3014     3.3014     0.0000
184 C      6.2344     6.0000    -0.2344     3.7959     3.7959     0.0000
185 C      6.2088     6.0000    -0.2088     3.7826     3.7826    -0.0000
186 C      5.6943     6.0000     0.3057     3.6118     3.6118     0.0000
187 N      7.1156     7.0000    -0.1156     2.9262     2.9262     0.0000
188 C      6.1621     6.0000    -0.1621     3.9613     3.9613    -0.0000
189 C      5.9065     6.0000     0.0935     3.2954     3.2954    -0.0000
190 C      6.1620     6.0000    -0.1620     3.9609     3.9609    -0.0000
191 C      6.2369     6.0000    -0.2369     3.7978     3.7978     0.0000
192 C      6.2077     6.0000    -0.2077     3.7815     3.7815     0.0000
193 C      5.6948     6.0000     0.3052     3.6113     3.6113    -0.0000
194 N      7.1150     7.0000    -0.1150     2.9261     2.9261    -0.0000
195 H      0.8059     1.0000     0.1941     0.9538     0.9538    -0.0000
196 H      0.8018     1.0000     0.1982     0.9527     0.9527     0.0000
197 H      0.8286     1.0000     0.1714     0.9607     0.9607     0.0000
198 H      0.8059     1.0000     0.1941     0.9538     0.9538     0.0000
199 H      0.8019     1.0000     0.1981     0.9527     0.9527     0.0000
200 H      0.8277     1.0000     0.1723     0.9604     0.9604    -0.0000
201 H      0.8282     1.0000     0.1718     0.9606     0.9606     0.0000
202 H      0.8057     1.0000     0.1943     0.9538     0.9538     0.0000
203 H      0.8021     1.0000     0.1979     0.9528     0.9528     0.0000
204 H      0.8346     1.0000     0.1654     0.9679     0.9679    -0.0000
205 H      0.8346     1.0000     0.1654     0.9679     0.9679    -0.0000
206 C      6.2682     6.0000    -0.2682     4.0355     4.0355    -0.0000
207 C      6.2671     6.0000    -0.2671     4.0341     4.0341    -0.0000
208 C      6.2666     6.0000    -0.2666     4.0356     4.0356    -0.0000
209 C      5.8438     6.0000     0.1562     3.5258     3.5258    -0.0000
210 C      6.2536     6.0000    -0.2536     3.7842     3.7842    -0.0000
211 C      5.8429     6.0000     0.1571     3.5268     3.5268    -0.0000
212 C      6.2542     6.0000    -0.2542     3.7856     3.7856    -0.0000
213 C      5.8436     6.0000     0.1564     3.5273     3.5273    -0.0000
214 C      6.2543     6.0000    -0.2543     3.7866     3.7866    -0.0000
215 C      5.9047     6.0000     0.0953     3.2928     3.2928    -0.0000
216 C      6.2357     6.0000    -0.2357     3.7965     3.7965    -0.0000
217 C      6.2087     6.0000    -0.2087     3.7826     3.7826    -0.0000
218 C      5.6948     6.0000     0.3052     3.6118     3.6118    -0.0000
219 N      7.1167     7.0000    -0.1167     2.9304     2.9304     0.0000
220 C      6.1619     6.0000    -0.1619     3.9626     3.9626    -0.0000
221 C      5.9081     6.0000     0.0919     3.2995     3.2995    -0.0000
222 C      6.2349     6.0000    -0.2349     3.7975     3.7975    -0.0000
223 C      6.2084     6.0000    -0.2084     3.7834     3.7834    -0.0000
224 C      5.6951     6.0000     0.3049     3.6136     3.6136    -0.0000
225 N      7.1168     7.0000    -0.1168     2.9283     2.9283     0.0000
226 C      6.1616     6.0000    -0.1616     3.9612     3.9612     0.0000
227 C      5.9033     6.0000     0.0967     3.2913     3.2913    -0.0000
228 C      6.1634     6.0000    -0.1634     3.9618     3.9618    -0.0000
229 C      6.2360     6.0000    -0.2360     3.7969     3.7969    -0.0000
230 C      6.2088     6.0000    -0.2088     3.7831     3.7831    -0.0000
231 C      5.6964     6.0000     0.3036     3.6148     3.6148    -0.0000
232 N      7.1162     7.0000    -0.1162     2.9289     2.9289     0.0000
233 H      0.8058     1.0000     0.1942     0.9538     0.9538     0.0000
234 H      0.8020     1.0000     0.1980     0.9527     0.9527     0.0000
235 H      0.8056     1.0000     0.1944     0.9537     0.9537     0.0000
236 H      0.8019     1.0000     0.1981     0.9527     0.9527     0.0000
237 H      0.8277     1.0000     0.1723     0.9604     0.9604     0.0000
238 H      0.8281     1.0000     0.1719     0.9605     0.9605    -0.0000
239 H      0.8057     1.0000     0.1943     0.9538     0.9538    -0.0000
240 H      0.8020     1.0000     0.1980     0.9527     0.9527    -0.0000
241 H      0.8347     1.0000     0.1653     0.9679     0.9679     0.0000
242 H      0.8349     1.0000     0.1651     0.9680     0.9680    -0.0000
243 H      0.8347     1.0000     0.1653     0.9679     0.9679     0.0000
244 H      0.8143     1.0000     0.1857     0.9567     0.9567    -0.0000
245 H      0.8137     1.0000     0.1863     0.9565     0.9565    -0.0000
246 H      0.8140     1.0000     0.1860     0.9566     0.9566     0.0000
247 H      0.8141     1.0000     0.1859     0.9567     0.9567    -0.0000
248 H      0.8146     1.0000     0.1854     0.9569     0.9569     0.0000
249 H      0.8143     1.0000     0.1857     0.9567     0.9567     0.0000
250 H      0.8139     1.0000     0.1861     0.9566     0.9566    -0.0000
251 H      0.8135     1.0000     0.1865     0.9564     0.9564     0.0000
252 H      0.8144     1.0000     0.1856     0.9568     0.9568    -0.0000
253 H      0.8137     1.0000     0.1863     0.9565     0.9565    -0.0000
254 H      0.8144     1.0000     0.1856     0.9568     0.9568    -0.0000
255 H      0.8145     1.0000     0.1855     0.9569     0.9569     0.0000
256 H      0.8349     1.0000     0.1651     0.9680     0.9680     0.0000
257 H      0.8346     1.0000     0.1654     0.9679     0.9679    -0.0000
258 H      0.8281     1.0000     0.1719     0.9605     0.9605    -0.0000
259 H      0.8348     1.0000     0.1652     0.9680     0.9680     0.0000
260 H      0.6627     1.0000     0.3373     0.9585     0.9585    -0.0000
261 H      0.6627     1.0000     0.3373     0.9587     0.9587    -0.0000
262 H      0.6632     1.0000     0.3368     0.9587     0.9587     0.0000
263 H      0.6625     1.0000     0.3375     0.9585     0.9585    -0.0000

  Mayer bond orders larger than 0.100000
B(  0-N ,  1-C ) :   0.8838 B(  0-N ,  3-C ) :   0.8845 B(  0-N ,  5-C ) :   0.8838 
B(  0-N ,260-H ) :   0.7669 B(  1-C ,  2-C ) :   0.8919 B(  1-C , 11-H ) :   0.9363 
B(  1-C , 12-H ) :   0.9314 B(  2-C ,  7-N ) :   0.8506 B(  2-C , 13-H ) :   0.9396 
B(  2-C , 14-H ) :   0.9458 B(  3-C ,  4-C ) :   0.8927 B(  3-C , 15-H ) :   0.9360 
B(  3-C , 16-H ) :   0.9313 B(  4-C ,  8-N ) :   0.8502 B(  4-C , 17-H ) :   0.9396 
B(  4-C , 18-H ) :   0.9456 B(  5-C ,  6-C ) :   0.8904 B(  5-C , 19-H ) :   0.9364 
B(  5-C , 20-H ) :   0.9313 B(  6-C ,  9-N ) :   0.8495 B(  6-C , 21-H ) :   0.9391 
B(  6-C , 22-H ) :   0.9470 B(  7-N , 10-Li) :   0.1099 B(  7-N , 23-C ) :   1.9681 
B(  7-N , 41-C ) :  -0.1384 B(  8-N , 10-Li) :   0.1129 B(  8-N ,129-C ) :   1.9675 
B(  8-N ,147-C ) :  -0.1386 B(  9-N , 10-Li) :   0.1070 B(  9-N ,168-C ) :   1.9674 
B(  9-N ,186-C ) :  -0.1378 B( 23-C , 41-C ) :   0.9784 B( 23-C , 59-H ) :   0.9056 
B( 24-C , 35-C ) :   0.9774 B( 24-C , 69-N ) :   1.9689 B( 24-C ,256-H ) :   0.9055 
B( 25-C , 48-C ) :   0.9773 B( 25-C , 90-N ) :   1.9671 B( 25-C ,243-H ) :   0.9059 
B( 26-C , 27-C ) :   1.3944 B( 26-C , 31-C ) :   1.3573 B( 26-C , 32-C ) :   0.7466 
B( 27-C , 28-C ) :   1.3569 B( 27-C ,244-H ) :   0.9093 B( 28-C , 29-C ) :   1.3941 
B( 28-C , 38-C ) :   0.7469 B( 29-C , 30-C ) :   1.3584 B( 29-C ,245-H ) :   0.9090 
B( 30-C , 31-C ) :   1.3951 B( 30-C , 44-C ) :   0.7460 B( 31-C ,246-H ) :   0.9091 
B( 32-C , 33-C ) :   1.3245 B( 32-C , 37-C ) :   1.2846 B( 33-C , 34-C ) :   1.3857 
B( 33-C , 50-H ) :   0.9494 B( 34-C , 35-C ) :   1.3706 B( 34-C , 51-H ) :   0.9117 
B( 35-C , 36-N ) :   1.2228 B( 35-C , 69-N ) :  -0.1383 B( 36-N , 37-C ) :   1.4589 
B( 37-C , 52-H ) :   0.9429 B( 38-C , 39-C ) :   1.3242 B( 38-C , 43-C ) :   1.2838 
B( 39-C , 40-C ) :   1.3851 B( 39-C , 53-H ) :   0.9498 B( 40-C , 41-C ) :   1.3711 
B( 40-C , 54-H ) :   0.9120 B( 41-C , 42-N ) :   1.2226 B( 42-N , 43-C ) :   1.4602 
B( 43-C , 55-H ) :   0.9426 B( 44-C , 45-C ) :   1.2848 B( 44-C , 46-C ) :   1.3240 
B( 45-C , 49-N ) :   1.4588 B( 45-C , 56-H ) :   0.9425 B( 46-C , 47-C ) :   1.3850 
B( 46-C , 57-H ) :   0.9497 B( 47-C , 48-C ) :   1.3707 B( 47-C , 58-H ) :   0.9121 
B( 48-C , 49-N ) :   1.2228 B( 48-C , 90-N ) :  -0.1383 B( 60-N , 61-C ) :   0.8836 
B( 60-N , 63-C ) :   0.8833 B( 60-N , 65-C ) :   0.8832 B( 60-N ,261-H ) :   0.7667 
B( 61-C , 62-C ) :   0.8907 B( 61-C , 71-H ) :   0.9364 B( 61-C , 72-H ) :   0.9315 
B( 62-C , 67-N ) :   0.8497 B( 62-C , 73-H ) :   0.9395 B( 62-C , 74-H ) :   0.9464 
B( 63-C , 64-C ) :   0.8912 B( 63-C , 75-H ) :   0.9364 B( 63-C , 76-H ) :   0.9318 
B( 64-C , 68-N ) :   0.8500 B( 64-C , 77-H ) :   0.9392 B( 64-C , 78-H ) :   0.9459 
B( 65-C , 66-C ) :   0.8919 B( 65-C , 79-H ) :   0.9365 B( 65-C , 80-H ) :   0.9314 
B( 66-C , 69-N ) :   0.8495 B( 66-C , 81-H ) :   0.9463 B( 66-C , 82-H ) :   0.9395 
B( 67-N , 70-Li) :   0.1094 B( 67-N ,170-C ) :   1.9674 B( 67-N ,193-C ) :  -0.1381 
B( 68-N , 70-Li) :   0.1114 B( 68-N ,208-C ) :   1.9664 B( 68-N ,231-C ) :  -0.1383 
B( 69-N , 70-Li) :   0.1099 B( 83-N , 84-C ) :   0.8833 B( 83-N , 86-C ) :   0.8832 
B( 83-N , 88-C ) :   0.8831 B( 83-N ,263-H ) :   0.7667 B( 84-C , 85-C ) :   0.8916 
B( 84-C , 94-H ) :   0.9367 B( 84-C , 95-H ) :   0.9309 B( 85-C , 90-N ) :   0.8487 
B( 85-C , 96-H ) :   0.9395 B( 85-C , 97-H ) :   0.9462 B( 86-C , 87-C ) :   0.8914 
B( 86-C , 98-H ) :   0.9367 B( 86-C , 99-H ) :   0.9312 B( 87-C , 91-N ) :   0.8492 
B( 87-C ,100-H ) :   0.9394 B( 87-C ,101-H ) :   0.9461 B( 88-C , 89-C ) :   0.8918 
B( 88-C ,102-H ) :   0.9368 B( 88-C ,103-H ) :   0.9311 B( 89-C , 92-N ) :   0.8507 
B( 89-C ,104-H ) :   0.9455 B( 89-C ,105-H ) :   0.9394 B( 90-N , 93-Li) :   0.1116 
B( 91-N , 93-Li) :   0.1104 B( 91-N ,207-C ) :   1.9665 B( 91-N ,218-C ) :  -0.1381 
B( 92-N , 93-Li) :   0.1093 B( 92-N ,131-C ) :   1.9670 B( 92-N ,154-C ) :  -0.1385 
B(106-N ,107-C ) :   0.8829 B(106-N ,109-C ) :   0.8839 B(106-N ,111-C ) :   0.8838 
B(106-N ,262-H ) :   0.7674 B(107-C ,108-C ) :   0.8916 B(107-C ,117-H ) :   0.9363 
B(107-C ,118-H ) :   0.9314 B(108-C ,113-N ) :   0.8488 B(108-C ,119-H ) :   0.9396 
B(108-C ,120-H ) :   0.9465 B(109-C ,110-C ) :   0.8921 B(109-C ,121-H ) :   0.9364 
B(109-C ,122-H ) :   0.9313 B(110-C ,114-N ) :   0.8501 B(110-C ,123-H ) :   0.9392 
B(110-C ,124-H ) :   0.9457 B(111-C ,112-C ) :   0.8915 B(111-C ,125-H ) :   0.9363 
B(111-C ,126-H ) :   0.9315 B(112-C ,115-N ) :   0.8501 B(112-C ,127-H ) :   0.9458 
B(112-C ,128-H ) :   0.9397 B(113-N ,116-Li) :   0.1100 B(113-N ,206-C ) :   1.9682 
B(113-N ,224-C ) :  -0.1380 B(114-N ,116-Li) :   0.1093 B(114-N ,169-C ) :   1.9678 
B(114-N ,180-C ) :  -0.1386 B(115-N ,116-Li) :   0.1117 B(115-N ,130-C ) :   1.9670 
B(115-N ,141-C ) :  -0.1384 B(129-C ,147-C ) :   0.9779 B(129-C ,165-H ) :   0.9061 
B(130-C ,141-C ) :   0.9775 B(130-C ,166-H ) :   0.9060 B(131-C ,154-C ) :   0.9785 
B(131-C ,167-H ) :   0.9055 B(132-C ,133-C ) :   1.3587 B(132-C ,137-C ) :   1.3951 
B(132-C ,138-C ) :   0.7464 B(133-C ,134-C ) :   1.3951 B(133-C ,247-H ) :   0.9084 
B(134-C ,135-C ) :   1.3566 B(134-C ,144-C ) :   0.7477 B(135-C ,136-C ) :   1.3960 
B(135-C ,248-H ) :   0.9087 B(136-C ,137-C ) :   1.3560 B(136-C ,150-C ) :   0.7467 
B(137-C ,249-H ) :   0.9087 B(138-C ,139-C ) :   1.3231 B(138-C ,143-C ) :   1.2844 
B(139-C ,140-C ) :   1.3855 B(139-C ,156-H ) :   0.9495 B(140-C ,141-C ) :   1.3714 
B(140-C ,157-H ) :   0.9117 B(141-C ,142-N ) :   1.2226 B(142-N ,143-C ) :   1.4603 
B(143-C ,158-H ) :   0.9427 B(144-C ,145-C ) :   1.3241 B(144-C ,149-C ) :   1.2830 
B(145-C ,146-C ) :   1.3850 B(145-C ,159-H ) :   0.9491 B(146-C ,147-C ) :   1.3717 
B(146-C ,160-H ) :   0.9118 B(147-C ,148-N ) :   1.2217 B(148-N ,149-C ) :   1.4617 
B(149-C ,161-H ) :   0.9427 B(150-C ,151-C ) :   1.2843 B(150-C ,152-C ) :   1.3243 
B(151-C ,155-N ) :   1.4598 B(151-C ,162-H ) :   0.9424 B(152-C ,153-C ) :   1.3849 
B(152-C ,163-H ) :   0.9495 B(153-C ,154-C ) :   1.3713 B(153-C ,164-H ) :   0.9117 
B(154-C ,155-N ) :   1.2231 B(168-C ,186-C ) :   0.9780 B(168-C ,204-H ) :   0.9051 
B(169-C ,180-C ) :   0.9783 B(169-C ,259-H ) :   0.9057 B(170-C ,193-C ) :   0.9771 
B(170-C ,205-H ) :   0.9054 B(171-C ,172-C ) :   1.3945 B(171-C ,176-C ) :   1.3564 
B(171-C ,177-C ) :   0.7478 B(172-C ,173-C ) :   1.3591 B(172-C ,250-H ) :   0.9092 
B(173-C ,174-C ) :   1.3932 B(173-C ,183-C ) :   0.7471 B(174-C ,175-C ) :   1.3584 
B(174-C ,251-H ) :   0.9099 B(175-C ,176-C ) :   1.3949 B(175-C ,189-C ) :   0.7458 
B(176-C ,252-H ) :   0.9096 B(177-C ,178-C ) :   1.3241 B(177-C ,182-C ) :   1.2848 
B(178-C ,179-C ) :   1.3852 B(178-C ,195-H ) :   0.9495 B(179-C ,180-C ) :   1.3714 
B(179-C ,196-H ) :   0.9116 B(180-C ,181-N ) :   1.2228 B(181-N ,182-C ) :   1.4595 
B(182-C ,197-H ) :   0.9426 B(183-C ,184-C ) :   1.3229 B(183-C ,188-C ) :   1.2886 
B(184-C ,185-C ) :   1.3848 B(184-C ,198-H ) :   0.9498 B(185-C ,186-C ) :   1.3711 
B(185-C ,199-H ) :   0.9122 B(186-C ,187-N ) :   1.2230 B(187-N ,188-C ) :   1.4567 
B(188-C ,200-H ) :   0.9426 B(189-C ,190-C ) :   1.2858 B(189-C ,191-C ) :   1.3243 
B(190-C ,194-N ) :   1.4566 B(190-C ,201-H ) :   0.9428 B(191-C ,192-C ) :   1.3852 
B(191-C ,202-H ) :   0.9499 B(192-C ,193-C ) :   1.3711 B(192-C ,203-H ) :   0.9118 
B(193-C ,194-N ) :   1.2234 B(206-C ,224-C ) :   0.9785 B(206-C ,241-H ) :   0.9050 
B(207-C ,218-C ) :   0.9776 B(207-C ,257-H ) :   0.9055 B(208-C ,231-C ) :   0.9797 
B(208-C ,242-H ) :   0.9050 B(209-C ,210-C ) :   1.3930 B(209-C ,214-C ) :   1.3584 
B(209-C ,215-C ) :   0.7477 B(210-C ,211-C ) :   1.3591 B(210-C ,253-H ) :   0.9093 
B(211-C ,212-C ) :   1.3932 B(211-C ,221-C ) :   0.7467 B(212-C ,213-C ) :   1.3579 
B(212-C ,254-H ) :   0.9097 B(213-C ,214-C ) :   1.3949 B(213-C ,227-C ) :   0.7470 
B(214-C ,255-H ) :   0.9093 B(215-C ,216-C ) :   1.3230 B(215-C ,220-C ) :   1.2845 
B(216-C ,217-C ) :   1.3852 B(216-C ,233-H ) :   0.9500 B(217-C ,218-C ) :   1.3711 
B(217-C ,234-H ) :   0.9120 B(218-C ,219-N ) :   1.2234 B(219-N ,220-C ) :   1.4593 
B(220-C ,258-H ) :   0.9428 B(221-C ,222-C ) :   1.3239 B(221-C ,226-C ) :   1.2873 
B(222-C ,223-C ) :   1.3853 B(222-C ,235-H ) :   0.9497 B(223-C ,224-C ) :   1.3718 
B(223-C ,236-H ) :   0.9118 B(224-C ,225-N ) :   1.2229 B(225-N ,226-C ) :   1.4574 
B(226-C ,237-H ) :   0.9425 B(227-C ,228-C ) :   1.2840 B(227-C ,229-C ) :   1.3233 
B(228-C ,232-N ) :   1.4590 B(228-C ,238-H ) :   0.9428 B(229-C ,230-C ) :   1.3855 
B(229-C ,239-H ) :   0.9495 B(230-C ,231-C ) :   1.3712 B(230-C ,240-H ) :   0.9120 
B(231-C ,232-N ) :   1.2232 

-------
TIMINGS
-------

Total SCF time: 0 days 0 hours 32 min 45 sec 

Total time                  ....    1965.742 sec
Sum of individual times     ....    1919.694 sec  ( 97.7%)

Fock matrix formation       ....    1656.427 sec  ( 84.3%)
  Split-RI-J                ....     454.313 sec  ( 27.4% of F)
  XC integration            ....     443.390 sec  ( 26.8% of F)
    Basis function eval.    ....      67.926 sec  ( 15.3% of XC)
    Density eval.           ....     200.830 sec  ( 45.3% of XC)
    XC-Functional eval.     ....      22.776 sec  (  5.1% of XC)
    XC-Potential eval.      ....     121.667 sec  ( 27.4% of XC)
Diagonalization             ....      23.550 sec  (  1.2%)
Density matrix formation    ....       6.795 sec  (  0.3%)
Population analysis         ....       5.504 sec  (  0.3%)
Initial guess               ....      29.571 sec  (  1.5%)
Orbital Transformation      ....       0.000 sec  (  0.0%)
Orbital Orthonormalization  ....       0.000 sec  (  0.0%)
DIIS solution               ....      12.459 sec  (  0.6%)
SOSCF solution              ....      31.347 sec  (  1.6%)
Grid generation             ....     154.041 sec  (  7.8%)

Maximum memory used throughout the entire SCF-calculation: 4689.4 MB


-------------------------------------------------------------------------------
                          DFT DISPERSION CORRECTION                            
                                                                               
                                 DFTD4 V2.5                                    
-------------------------------------------------------------------------------
The R2SCAN3C composite method is recognized
Using three-body term ABC
Active option DFTDOPT                   ...         5   

Starting D4
-------------------------   ----------------
Dispersion correction           -0.178740467
-------------------------   ----------------

NOTIFICATION: Different basis set in ORCA and otool_gcp:
ORCA: 3556  gCP: 3548 
If you are NOT using ECPs, check your basis set inputs!
------------------   -----------------
gCP correction             0.175777245
------------------   -----------------

-------------------------   --------------------
FINAL SINGLE POINT ENERGY     -6201.223559237853
-------------------------   --------------------


                            ***************************************
                            *     ORCA property calculations      *
                            ***************************************

                                    ---------------------
                                    Active property flags
                                    ---------------------
   (+) Dipole Moment


------------------------------------------------------------------------------
                       ORCA ELECTRIC PROPERTIES CALCULATION
------------------------------------------------------------------------------

Dipole Moment Calculation                       ... on
Quadrupole Moment Calculation                   ... off
Polarizability Calculation                      ... off
GBWName                                         ... ORCA.gbw
Electron density                                ... ORCA.scfp
The origin for moment calculation is the CENTER OF MASS  = ( 3.110799,  3.179888  1.049457)

-------------
DIPOLE MOMENT
-------------
                                X             Y             Z
Electronic contribution:     -0.15020      -0.07416       0.08941
Nuclear contribution   :      0.18035       0.08481      -0.09251
                        -----------------------------------------
Total Dipole Moment    :      0.03015       0.01066      -0.00310
                        -----------------------------------------
Magnitude (a.u.)       :      0.03213
Magnitude (Debye)      :      0.08167



--------------------
Rotational spectrum 
--------------------
 
Rotational constants in cm-1:     0.000233     0.000233     0.000232 
Rotational constants in MHz :     6.978436     6.974986     6.968489 

 Dipole components along the rotational axes: 
x,y,z [a.u.] :    -0.015260     0.027775    -0.005293 
x,y,z [Debye]:    -0.038789     0.070599    -0.013453 

 

Timings for individual modules:

Sum of individual times         ...     1981.006 sec (=  33.017 min)
GTO integral calculation        ...       13.801 sec (=   0.230 min)   0.7 %
SCF iterations                  ...     1967.205 sec (=  32.787 min)  99.3 %
                             ****ORCA TERMINATED NORMALLY****
TOTAL RUN TIME: 0 days 0 hours 33 minutes 8 seconds 404 msec
