
                                 *****************
                                 * O   R   C   A *
                                 *****************

                                            #,                                       
                                            ###                                      
                                            ####                                     
                                            #####                                    
                                            ######                                   
                                           ########,                                 
                                     ,,################,,,,,                         
                               ,,#################################,,                 
                          ,,##########################################,,             
                       ,#########################################, ''#####,          
                    ,#############################################,,   '####,        
                  ,##################################################,,,,####,       
                ,###########''''           ''''###############################       
              ,#####''   ,,,,##########,,,,          '''####'''          '####       
            ,##' ,,,,###########################,,,                        '##       
           ' ,,###''''                  '''############,,,                           
         ,,##''                                '''############,,,,        ,,,,,,###''
      ,#''                                            '''#######################'''  
     '                                                          ''''####''''         
             ,#######,   #######,   ,#######,      ##                                
            ,#'     '#,  ##    ##  ,#'     '#,    #''#        ######   ,####,        
            ##       ##  ##   ,#'  ##            #'  '#       #        #'  '#        
            ##       ##  #######   ##           ,######,      #####,   #    #        
            '#,     ,#'  ##    ##  '#,     ,#' ,#      #,         ##   #,  ,#        
             '#######'   ##     ##  '#######'  #'      '#     #####' # '####'        



                  #######################################################
                  #                        -***-                        #
                  #          Department of theory and spectroscopy      #
                  #    Directorship and core code : Frank Neese         #
                  #        Max Planck Institute fuer Kohlenforschung    #
                  #                Kaiser Wilhelm Platz 1               #
                  #                 D-45470 Muelheim/Ruhr               #
                  #                      Germany                        #
                  #                                                     #
                  #                  All rights reserved                #
                  #                        -***-                        #
                  #######################################################


                         Program Version 5.0.4 -  RELEASE  -


 With contributions from (in alphabetic order):
   Daniel Aravena         : Magnetic Suceptibility
   Michael Atanasov       : Ab Initio Ligand Field Theory (pilot matlab implementation)
   Alexander A. Auer      : GIAO ZORA, VPT2 properties, NMR spectrum
   Ute Becker             : Parallelization
   Giovanni Bistoni       : ED, misc. LED, open-shell LED, HFLD
   Martin Brehm           : Molecular dynamics
   Dmytro Bykov           : SCF Hessian
   Vijay G. Chilkuri      : MRCI spin determinant printing, contributions to CSF-ICE
   Dipayan Datta          : RHF DLPNO-CCSD density
   Achintya Kumar Dutta   : EOM-CC, STEOM-CC
   Dmitry Ganyushin       : Spin-Orbit,Spin-Spin,Magnetic field MRCI
   Miquel Garcia          : C-PCM and meta-GGA Hessian, CC/C-PCM, Gaussian charge scheme
   Yang Guo               : DLPNO-NEVPT2, F12-NEVPT2, CIM, IAO-localization
   Andreas Hansen         : Spin unrestricted coupled pair/coupled cluster methods
   Benjamin Helmich-Paris : MC-RPA, TRAH-SCF, COSX integrals
   Lee Huntington         : MR-EOM, pCC
   Robert Izsak           : Overlap fitted RIJCOSX, COSX-SCS-MP3, EOM
   Marcus Kettner         : VPT2
   Christian Kollmar      : KDIIS, OOCD, Brueckner-CCSD(T), CCSD density, CASPT2, CASPT2-K
   Simone Kossmann        : Meta GGA functionals, TD-DFT gradient, OOMP2, MP2 Hessian
   Martin Krupicka        : Initial AUTO-CI
   Lucas Lang             : DCDCAS
   Marvin Lechner         : AUTO-CI (C++ implementation), FIC-MRCC
   Dagmar Lenk            : GEPOL surface, SMD
   Dimitrios Liakos       : Extrapolation schemes; Compound Job, initial MDCI parallelization
   Dimitrios Manganas     : Further ROCIS development; embedding schemes
   Dimitrios Pantazis     : SARC Basis sets
   Anastasios Papadopoulos: AUTO-CI, single reference methods and gradients
   Taras Petrenko         : DFT Hessian,TD-DFT gradient, ASA, ECA, R-Raman, ABS, FL, XAS/XES, NRVS
   Peter Pinski           : DLPNO-MP2, DLPNO-MP2 Gradient
   Christoph Reimann      : Effective Core Potentials
   Marius Retegan         : Local ZFS, SOC
   Christoph Riplinger    : Optimizer, TS searches, QM/MM, DLPNO-CCSD(T), (RO)-DLPNO pert. Triples
   Tobias Risthaus        : Range-separated hybrids, TD-DFT gradient, RPA, STAB
   Michael Roemelt        : Original ROCIS implementation
   Masaaki Saitow         : Open-shell DLPNO-CCSD energy and density
   Barbara Sandhoefer     : DKH picture change effects
   Avijit Sen             : IP-ROCIS
   Kantharuban Sivalingam : CASSCF convergence, NEVPT2, FIC-MRCI
   Bernardo de Souza      : ESD, SOC TD-DFT
   Georgi Stoychev        : AutoAux, RI-MP2 NMR, DLPNO-MP2 response
   Willem Van den Heuvel  : Paramagnetic NMR
   Boris Wezisla          : Elementary symmetry handling
   Frank Wennmohs         : Technical directorship


 We gratefully acknowledge several colleagues who have allowed us to
 interface, adapt or use parts of their codes:
   Stefan Grimme, W. Hujo, H. Kruse, P. Pracht,  : VdW corrections, initial TS optimization,
                  C. Bannwarth, S. Ehlert          DFT functionals, gCP, sTDA/sTD-DF
   Ed Valeev, F. Pavosevic, A. Kumar             : LibInt (2-el integral package), F12 methods
   Garnet Chan, S. Sharma, J. Yang, R. Olivares  : DMRG
   Ulf Ekstrom                                   : XCFun DFT Library
   Mihaly Kallay                                 : mrcc  (arbitrary order and MRCC methods)
   Jiri Pittner, Ondrej Demel                    : Mk-CCSD
   Frank Weinhold                                : gennbo (NPA and NBO analysis)
   Christopher J. Cramer and Donald G. Truhlar   : smd solvation model
   Lars Goerigk                                  : TD-DFT with DH, B97 family of functionals
   V. Asgeirsson, H. Jonsson                     : NEB implementation
   FAccTs GmbH                                   : IRC, NEB, NEB-TS, DLPNO-Multilevel, CI-OPT
                                                   MM, QMMM, 2- and 3-layer-ONIOM, Crystal-QMMM,
                                                   LR-CPCM, SF, NACMEs, symmetry and pop. for TD-DFT,
                                                   nearIR, NL-DFT gradient (VV10), updates on ESD,
                                                   ML-optimized integration grids
   S Lehtola, MJT Oliveira, MAL Marques          : LibXC Library
   Liviu Ungur et al                             : ANISO software


 Your calculation uses the libint2 library for the computation of 2-el integrals
 For citations please refer to: http://libint.valeyev.net

 Your ORCA version has been built with support for libXC version: 5.1.0
 For citations please refer to: https://tddft.org/programs/libxc/

 This ORCA versions uses:
   CBLAS   interface :  Fast vector & matrix operations
   LAPACKE interface :  Fast linear algebra routines
   SCALAPACK package :  Parallel linear algebra routines
   Shared memory     :  Shared parallel matrices
   BLAS/LAPACK       :  OpenBLAS 0.3.15  USE64BITINT DYNAMIC_ARCH NO_AFFINITY SkylakeX SINGLE_THREADED
        Core in use  :  SkylakeX
   Copyright (c) 2011-2014, The OpenBLAS Project




***************************************
The coordinates will be read from file: xtbopt.xyz
***************************************


Your calculation utilizes the geometrical counterpoise correction gCP
Please cite in your paper:
H.Kruse, S. Grimme J.Chem.Phys., 136, (2012), 154101 
   

Your calculation utilizes the atom-pairwise dispersion correction
based on tight binding partial charges (D4)
Cite in your paper:
E.Caldeweyher, C.Bannwarth, S.Grimme, J.Chem.Phys., (2017), 147, 034112.
E.Caldeweyher, S.Ehlert, A.Hansen, H.Neugebauer, S.Grimme, J.Chem.Phys., (2018), in progress.
   

Your calculation utilizes the SMD solvation module
Please cite in your paper:
A.V. Marenich, C.J. Cramer, D.G. Truhlar J. Phys. Chem. B, 113, (2009), 6378 

================================================================================

----- Orbital basis set information -----
Your calculation utilizes the basis: def2-mTZVPP
   Stefan Grimme, Andreas Hansen, Sebastian Ehlert, and Jan-Michael Mewes 
   J. Chem. Phys. 154, 000000 (2021). DOI: 10.1063/5.0040021

----- AuxJ basis set information -----
Your calculation utilizes the auxiliary basis: def2/J
   F. Weigend, Phys. Chem. Chem. Phys. 8, 1057 (2006).

================================================================================
                                        WARNINGS
                       Please study these warnings very carefully!
================================================================================

Using LibXC functional ID 497 : Re-regularized SCAN exchange by Furness et al
[ 1]  J. W. Furness, A. D. Kaplan, J. Ning, J. P. Perdew, and J. Sun, J. Phys. Chem. Lett. 11, 8208 (2020)
[ 2]  J. W. Furness, A. D. Kaplan, J. Ning, J. P. Perdew, and J. Sun, J. Phys. Chem. Lett. 11, 9248 (2020)
Using LibXC functional ID 498 : Re-regularized SCAN correlation by Furness et al
[ 1]  J. W. Furness, A. D. Kaplan, J. Ning, J. P. Perdew, and J. Sun, J. Phys. Chem. Lett. 11, 8208 (2020)
[ 2]  J. W. Furness, A. D. Kaplan, J. Ning, J. P. Perdew, and J. Sun, J. Phys. Chem. Lett. 11, 9248 (2020)
Using LibXC functional ID 497 : Re-regularized SCAN exchange by Furness et al
[ 1]  J. W. Furness, A. D. Kaplan, J. Ning, J. P. Perdew, and J. Sun, J. Phys. Chem. Lett. 11, 8208 (2020)
[ 2]  J. W. Furness, A. D. Kaplan, J. Ning, J. P. Perdew, and J. Sun, J. Phys. Chem. Lett. 11, 9248 (2020)
Using LibXC functional ID 498 : Re-regularized SCAN correlation by Furness et al
[ 1]  J. W. Furness, A. D. Kaplan, J. Ning, J. P. Perdew, and J. Sun, J. Phys. Chem. Lett. 11, 8208 (2020)
[ 2]  J. W. Furness, A. D. Kaplan, J. Ning, J. P. Perdew, and J. Sun, J. Phys. Chem. Lett. 11, 9248 (2020)

INFO   : the flag for use of the SHARK integral package has been found!

================================================================================
                                       INPUT FILE
================================================================================
NAME = ORCA.in
|  1> ! r2SCAN-3c ENERGY TightSCF defgrid3 def2/J
|  2> %maxcore 15000
|  3> %PAL NPROCS 10 END
|  4> %CPCM SMD TRUE
|  5>       SMDSOLVENT "MeCN"
|  6> END
|  7> *xyzfile 8 1  xtbopt.xyz
|  8> 
|  9>                          ****END OF INPUT****
================================================================================

                       ****************************
                       * Single Point Calculation *
                       ****************************

---------------------------------
CARTESIAN COORDINATES (ANGSTROEM)
---------------------------------
  N      6.026350    7.959998    8.069639
  C      6.805244    7.033642    8.938660
  C      6.119177    5.674780    9.087298
  C      6.903804    8.960948    7.399513
  C      7.560520    8.385695    6.143870
  C      4.910514    8.612682    8.810920
  C      3.745738    8.966501    7.885049
  N      6.087965    5.003437    7.818772
  N      6.547227    8.042291    5.186506
  N      3.156320    7.763354    7.369396
  K      4.493406    5.854682    5.526595
  H      6.943538    7.499492    9.916700
  H      7.787090    6.874098    8.489228
  H      6.652114    5.099525    9.859519
  H      5.082050    5.800444    9.413856
  H      7.662806    9.299693    8.107755
  H      6.296591    9.819524    7.107036
  H      8.280716    9.122491    5.757606
  H      8.109887    7.469599    6.382420
  H      5.290774    9.508384    9.306643
  H      4.545046    7.924515    9.575273
  H      3.028969    9.585039    8.446080
  H      4.098368    9.548686    7.027721
  C      6.460284    3.798859    7.748695
  C      4.043075   -6.358030    1.400912
  C      8.799843    3.413143   -4.232805
  C      6.063390   -1.068519    1.567220
  C      6.055615   -0.399130    2.787538
  C      6.520321    0.909278    2.876358
  C      6.993242    1.549169    1.734404
  C      7.006477    0.887694    0.510270
  C      6.538105   -0.420528    0.431159
  C      5.573245   -2.452212    1.483139
  C      6.285021   -3.441480    0.806743
  C      5.779952   -4.728092    0.777686
  C      4.566150   -4.999248    1.416366
  N      3.873527   -4.047662    2.046188
  C      4.365277   -2.827410    2.081048
  C      6.512828    1.613278    4.167592
  C      6.994542    1.014449    5.330295
  C      6.975382    1.733342    6.511106
  C      6.462211    3.033872    6.509794
  N      5.979870    3.599533    5.401052
  C      6.013824    2.915756    4.277130
  C      7.510227    1.565889   -0.693315
  C      6.797842    1.525065   -1.896837
  C      8.707652    2.279239   -0.684135
  C      9.134088    2.886346   -1.850710
  C      8.346490    2.782292   -3.001204
  N      7.190166    2.115332   -3.005610
  H      7.228722   -3.215259    0.333131
  H      6.320928   -5.514631    0.274420
  H      3.765690   -2.091482    2.600764
  H      7.400648    0.014145    5.307268
  H      7.358919    1.297224    7.420598
  H      5.611986    3.417931    3.406986
  H      5.856305    0.994990   -1.952902
  H      9.307667    2.337307    0.211810
  H     10.066410    3.429251   -1.873261
  H      6.820129    3.251468    8.628966
  N      1.100228   -7.870460    3.964866
  C      1.200579   -7.841255    5.451309
  C      2.130076   -6.727040    5.935318
  C     -0.208688   -8.416136    3.506941
  C     -1.306532   -7.351578    3.532758
  C      2.248582   -8.590339    3.345402
  C      2.555746   -8.068526    1.940956
  N      1.573940   -5.450780    5.585468
  N     -0.990916   -6.312662    2.593801
  N      2.997064   -6.704541    2.017513
  K      1.309730   -4.421043    2.832434
  H      1.553599   -8.813306    5.802086
  H      0.206898   -7.663720    5.866825
  H      2.279905   -6.844070    7.019250
  H      3.107360   -6.801732    5.448129
  H     -0.481392   -9.263056    4.139975
  H     -0.100683   -8.772223    2.480805
  H     -2.270330   -7.838988    3.321947
  H     -1.370685   -6.887911    4.522209
  H      2.022453   -9.658304    3.315133
  H      3.133175   -8.442347    3.967531
  H      1.655146   -8.084598    1.318969
  H      3.301748   -8.731938    1.477932
  N      7.345794    2.554643   -8.042053
  C      8.718449    2.996202   -7.665242
  C      8.697034    3.977601   -6.492291
  C      7.347686    1.187362   -8.634845
  C      7.365993    0.104164   -7.555046
  C      6.667561    3.544551   -8.925468
  C      5.145717    3.492773   -8.781758
  N      8.176006    3.321158   -5.326756
  N      6.152728    0.166232   -6.790257
  N      4.767387    3.903323   -7.459184
  K      5.360303    2.420772   -5.008274
  H      9.197284    3.450317   -8.535249
  H      9.299269    2.120916   -7.368668
  H      9.715999    4.365764   -6.343735
  H      8.039880    4.825174   -6.710969
  H      8.213177    1.086474   -9.293100
  H      6.443215    1.061648   -9.232681
  H      7.514136   -0.871818   -8.041178
  H      8.196763    0.266708   -6.860978
  H      6.959576    3.352748   -9.960182
  H      7.002944    4.546492   -8.651293
  H      4.779226    2.470817   -8.921122
  H      4.701416    4.123864   -9.566314
  N     -8.056981    5.570254   -1.267052
  C     -8.246079    5.456693   -2.740745
  C     -6.952609    5.744869   -3.504356
  C     -9.005740    4.700592   -0.516077
  C     -8.521432    3.251414   -0.450026
  C     -8.122333    6.986259   -0.806905
  C     -7.279876    7.212696    0.449446
  N     -5.978550    4.733677   -3.205366
  N     -7.297165    3.182699    0.296283
  N     -5.895553    6.983237    0.146921
  K     -4.712935    4.326180   -0.570128
  H     -9.034243    6.146199   -3.050388
  H     -8.564205    4.439621   -2.976868
  H     -7.187536    5.805639   -4.577777
  H     -6.529131    6.705840   -3.195457
  H     -9.987326    4.753491   -0.991924
  H     -9.095054    5.078822    0.503994
  H     -9.322300    2.636837   -0.011791
  H     -8.311852    2.868433   -1.453820
  H     -9.165150    7.251829   -0.621357
  H     -7.737579    7.631200   -1.598953
  H     -7.563456    6.505784    1.235687
  H     -7.472563    8.230559    0.820681
  C      6.684212    8.404226    3.984626
  C     -5.032966    7.829943    0.512031
  C      3.845804    4.754708   -7.316398
  C      0.481766    7.225920   -0.630093
  C      1.468591    7.484210    0.316306
  C      2.812094    7.309724   -0.002166
  C      3.165454    6.867530   -1.272991
  C      2.185460    6.605650   -2.226160
  C      0.845187    6.785894   -1.899627
  C     -0.936983    7.421247   -0.297367
  C     -1.384823    8.572606    0.348007
  C     -2.734012    8.706458    0.618263
  C     -3.608920    7.680927    0.247343
  N     -3.177752    6.569015   -0.352167
  C     -1.894232    6.452743   -0.618129
  C      3.851749    7.601982    0.996133
  C      4.966913    8.375672    0.679261
  C      5.902314    8.635759    1.663210
  C      5.710454    8.107273    2.943471
  N      4.654473    7.347109    3.241245
  C      3.760668    7.113290    2.303689
  C      2.569084    6.147381   -3.569618
  C      3.506821    5.123579   -3.741528
  C      2.019578    6.709162   -4.720873
  C      2.437722    6.248986   -5.955803
  C      3.389828    5.227029   -6.016612
  N      3.899776    4.673513   -4.914121
  H     -0.694665    9.360493    0.610780
  H     -3.107279    9.595621    1.102699
  H     -1.594801    5.532959   -1.103144
  H      5.087584    8.787860   -0.311496
  H      6.765112    9.246788    1.446996
  H      2.922791    6.493340    2.594358
  H      3.947456    4.640529   -2.879176
  H      1.297163    7.508885   -4.653359
  H      2.039213    6.680002   -6.861285
  H      7.553449    8.984301    3.650186
  H     -5.310051    8.745702    1.049091
  H      3.332132    5.202762   -8.176162
  C      1.901987    7.624456    7.409344
  C     -7.172728    2.310072    1.200396
  C      1.507775   -4.543440    6.461049
  C     -2.483372    1.844052    4.342996
  C     -1.879191    3.013334    4.795614
  C     -0.711141    2.956299    5.549203
  C     -0.145045    1.720095    5.846186
  C     -0.743166    0.545385    5.400465
  C     -1.911916    0.612612    4.647450
  C     -3.718112    1.915797    3.547749
  C     -4.819294    1.108957    3.828498
  C     -5.957163    1.236610    3.053624
  C     -5.968314    2.161289    2.005036
  N     -4.906798    2.919956    1.723356
  C     -3.830710    2.802903    2.471809
  C     -0.079149    4.192982    6.032094
  C     -0.821990    5.200841    6.644496
  C     -0.169808    6.333873    7.093720
  C      1.212455    6.441844    6.913355
  N      1.920817    5.487062    6.306519
  C      1.296308    4.405682    5.890713
  C     -0.143430   -0.758028    5.722020
  C      0.017227   -1.742077    4.740528
  C      0.295505   -1.062896    7.009418
  C      0.842937   -2.308767    7.252850
  C      0.952220   -3.223011    6.200747
  N      0.550247   -2.924461    4.963362
  H     -4.795662    0.411714    4.652705
  H     -6.828376    0.634844    3.261828
  H     -2.997100    3.438406    2.202445
  H     -1.886297    5.089888    6.789347
  H     -0.720514    7.121069    7.585300
  H      1.913207    3.662902    5.401960
  H     -0.294852   -1.550154    3.722405
  H      0.188132   -0.348220    7.811778
  H      1.174437   -2.573943    8.244973
  H      1.247287    8.393786    7.837593
  H      1.857586   -4.702830    7.488715
  C     -5.341446    4.190135   -4.150404
  C      5.514581   -0.897578   -6.555058
  C     -1.880526   -5.910764    1.793016
  C      0.621590   -0.944036   -3.701331
  C     -0.298445    0.068258   -3.958945
  C     -1.513847    0.105073   -3.282318
  C     -1.805393   -0.877411   -2.340235
  C     -0.891164   -1.891730   -2.073925
  C      0.321902   -1.919646   -2.755627
  C      1.898656   -0.984667   -4.428781
  C      2.384955   -2.167903   -4.982787
  C      3.580539   -2.141188   -5.676098
  C      4.273019   -0.932405   -5.795103
  N      3.821135    0.195490   -5.242597
  C      2.677302    0.166276   -4.592245
  C     -2.487433    1.171527   -3.559232
  C     -2.808353    1.551055   -4.861538
  C     -3.745503    2.548538   -5.056763
  C     -4.336726    3.156384   -3.945135
  N     -4.013496    2.808708   -2.697570
  C     -3.130568    1.849604   -2.517880
  C     -1.201710   -2.930604   -1.080962
  C     -0.263252   -3.307689   -0.114263
  C     -2.436140   -3.577442   -1.059027
  C     -2.661774   -4.556760   -0.109664
  C     -1.651224   -4.864853    0.806156
  N     -0.476036   -4.231927    0.798045
  H      1.825505   -3.087440   -4.896505
  H      3.968433   -3.040849   -6.128494
  H     -2.353334    1.057548   -5.707406
  H     -4.023325    2.847090   -6.055899
  H     -2.903518    1.604551   -1.488662
  H      0.703054   -2.821972   -0.077330
  H     -3.197241   -3.337119   -1.786388
  H     -3.603921   -5.082271   -0.082157
  H     -5.517729    4.460225   -5.199157
  H     -2.890184   -6.340160    1.784801
  H      9.737388    3.976372   -4.145381
  H      5.697762   -0.901661    3.673255
  H      7.363271    2.561010    1.800107
  H      6.553838   -0.940233   -0.514702
  H      1.191060    7.834829    1.298746
  H      4.207430    6.740614   -1.524716
  H      0.083102    6.594527   -2.639639
  H     -2.325717    3.970055    4.570795
  H      0.756678    1.671045    6.437430
  H     -2.384992   -0.295925    4.307201
  H     -0.073527    0.822580   -4.697495
  H     -2.751752   -0.860305   -1.821501
  H      1.029662   -2.710501   -2.559051
  H      4.633835   -7.072998    0.814589
  H      5.854751   -1.871919   -6.927599
  H      2.356827    1.105664   -4.161097
  H     -7.980068    1.607886    1.443445
  H      5.599220    7.387029    7.320944
  H      1.146765   -6.888869    3.639952
  H     -7.102810    5.228693   -1.057258
  H      6.795523    2.501763   -7.167187

----------------------------
CARTESIAN COORDINATES (A.U.)
----------------------------
  NO LB      ZA    FRAG     MASS         X           Y           Z
   0 N     7.0000    0    14.007   11.388150   15.042216   15.249408
   1 C     6.0000    0    12.011   12.860048   13.291658   16.891620
   2 C     6.0000    0    12.011   11.563568   10.723780   17.172504
   3 C     6.0000    0    12.011   13.046300   16.933738   13.983052
   4 C     6.0000    0    12.011   14.287313   15.846667   11.610231
   5 C     6.0000    0    12.011    9.279527   16.275610   16.650227
   6 C     6.0000    0    12.011    7.078418   16.944231   14.900583
   7 N     7.0000    0    14.007   11.504586    9.455126   14.775338
   8 N     7.0000    0    14.007   12.372466   15.197728    9.801077
   9 N     7.0000    0    14.007    5.964580   14.670612   13.926141
  10 K    19.0000    0    39.100    8.491307   11.063745   10.443750
  11 H     1.0000    0     1.008   13.121385   14.171985   18.739847
  12 H     1.0000    0     1.008   14.715467   12.990162   16.042316
  13 H     1.0000    0     1.008   12.570674    9.636706   18.631790
  14 H     1.0000    0     1.008    9.603683   10.961251   17.789609
  15 H     1.0000    0     1.008   14.480605   17.573872   15.321437
  16 H     1.0000    0     1.008   11.898833   18.556212   13.430352
  17 H     1.0000    0     1.008   15.648285   17.239010   10.880298
  18 H     1.0000    0     1.008   15.325466   14.115496   12.061026
  19 H     1.0000    0     1.008    9.998114   17.968242   17.587006
  20 H     1.0000    0     1.008    8.588893   14.975163   18.094643
  21 H     1.0000    0     1.008    5.723922   18.113098   15.960778
  22 H     1.0000    0     1.008    7.744793   18.044401   13.280468
  23 C     6.0000    0    12.011   12.208168    7.178804   14.642911
  24 C     6.0000    0    12.011    7.640304  -12.014935    2.647339
  25 C     6.0000    0    12.011   16.629293    6.449905   -7.998842
  26 C     6.0000    0    12.011   11.458147   -2.019209    2.961617
  27 C     6.0000    0    12.011   11.443453   -0.754247    5.267683
  28 C     6.0000    0    12.011   12.321620    1.718286    5.435528
  29 C     6.0000    0    12.011   13.215312    2.927505    3.277549
  30 C     6.0000    0    12.011   13.240324    1.677498    0.964270
  31 C     6.0000    0    12.011   12.355228   -0.794683    0.814773
  32 C     6.0000    0    12.011   10.531907   -4.634009    2.802727
  33 C     6.0000    0    12.011   11.876969   -6.503455    1.524522
  34 C     6.0000    0    12.011   10.922526   -8.934798    1.469614
  35 C     6.0000    0    12.011    8.628773   -9.447210    2.676544
  36 N     7.0000    0    14.007    7.319905   -7.648973    3.866734
  37 C     6.0000    0    12.011    8.249178   -5.343031    3.932610
  38 C     6.0000    0    12.011   12.307462    3.048654    7.875607
  39 C     6.0000    0    12.011   13.217768    1.917030   10.072798
  40 C     6.0000    0    12.011   13.181562    3.275541   12.304207
  41 C     6.0000    0    12.011   12.211810    5.733187   12.301728
  42 N     7.0000    0    14.007   11.300316    6.802132   10.206510
  43 C     6.0000    0    12.011   11.364480    5.509981    8.082604
  44 C     6.0000    0    12.011   14.192273    2.959101   -1.310176
  45 C     6.0000    0    12.011   12.846060    2.881955   -3.584503
  46 C     6.0000    0    12.011   16.455077    4.307138   -1.292827
  47 C     6.0000    0    12.011   17.260924    5.454404   -3.497336
  48 C     6.0000    0    12.011   15.772581    5.257770   -5.671454
  49 N     7.0000    0    14.007   13.587444    3.997398   -5.679781
  50 H     1.0000    0     1.008   13.660306   -6.075959    0.629527
  51 H     1.0000    0     1.008   11.944823  -10.421141    0.518579
  52 H     1.0000    0     1.008    7.116123   -3.952328    4.914732
  53 H     1.0000    0     1.008   13.985198    0.026730   10.029283
  54 H     1.0000    0     1.008   13.906341    2.451398   14.022898
  55 H     1.0000    0     1.008   10.605117    6.458954    6.438270
  56 H     1.0000    0     1.008   11.066812    1.880258   -3.690451
  57 H     1.0000    0     1.008   17.588942    4.416870    0.400262
  58 H     1.0000    0     1.008   19.022759    6.480346   -3.539951
  59 H     1.0000    0     1.008   12.888177    6.144385   16.306383
  60 N     7.0000    0    14.007    2.079130  -14.873015    7.492512
  61 C     6.0000    0    12.011    2.268765  -14.817824   10.301481
  62 C     6.0000    0    12.011    4.025261  -12.712264   11.216126
  63 C     6.0000    0    12.011   -0.394363  -15.904193    6.627158
  64 C     6.0000    0    12.011   -2.468988  -13.892469    6.675945
  65 C     6.0000    0    12.011    4.249204  -16.233389    6.321895
  66 C     6.0000    0    12.011    4.829660  -15.247305    3.667875
  67 N     7.0000    0    14.007    2.974316  -10.300481   10.555005
  68 N     7.0000    0    14.007   -1.872559  -11.929202    4.901573
  69 N     7.0000    0    14.007    5.663631  -12.669746    3.812548
  70 K    19.0000    0    39.100    2.475032   -8.354561    5.352524
  71 H     1.0000    0     1.008    2.935876  -16.654734   10.964353
  72 H     1.0000    0     1.008    0.390980  -14.482332   11.086692
  73 H     1.0000    0     1.008    4.308396  -12.933419   13.264459
  74 H     1.0000    0     1.008    5.872060  -12.853412   10.295471
  75 H     1.0000    0     1.008   -0.909700  -17.504639    7.823419
  76 H     1.0000    0     1.008   -0.190262  -16.577098    4.688042
  77 H     1.0000    0     1.008   -4.290302  -14.813541    6.277570
  78 H     1.0000    0     1.008   -2.590220  -13.016266    8.545737
  79 H     1.0000    0     1.008    3.821882  -18.251550    6.264693
  80 H     1.0000    0     1.008    5.920843  -15.953724    7.497547
  81 H     1.0000    0     1.008    3.127772  -15.277676    2.492490
  82 H     1.0000    0     1.008    6.239400  -16.500971    2.792888
  83 N     7.0000    0    14.007   13.881539    4.827575  -15.197278
  84 C     6.0000    0    12.011   16.475481    5.662001  -14.485207
  85 C     6.0000    0    12.011   16.435013    7.516577  -12.268652
  86 C     6.0000    0    12.011   13.885115    2.243788  -16.317493
  87 C     6.0000    0    12.011   13.919709    0.196841  -14.276967
  88 C     6.0000    0    12.011   12.599865    6.698230  -16.866690
  89 C     6.0000    0    12.011    9.723996    6.600385  -16.595118
  90 N     7.0000    0    14.007   15.450412    6.276080  -10.066111
  91 N     7.0000    0    14.007   11.626972    0.314132  -12.831726
  92 N     7.0000    0    14.007    9.009056    7.376211  -14.095816
  93 K    19.0000    0    39.100   10.129504    4.574596   -9.464267
  94 H     1.0000    0     1.008   17.380347    6.520155  -16.129284
  95 H     1.0000    0     1.008   17.573073    4.007950  -13.924764
  96 H     1.0000    0     1.008   18.360577    8.250098  -11.987922
  97 H     1.0000    0     1.008   15.193172    9.118258  -12.681894
  98 H     1.0000    0     1.008   15.520654    2.053139  -17.561414
  99 H     1.0000    0     1.008   12.175912    2.006225  -17.447239
 100 H     1.0000    0     1.008   14.199658   -1.647497  -15.195625
 101 H     1.0000    0     1.008   15.489637    0.504006  -12.965370
 102 H     1.0000    0     1.008   13.151692    6.335775  -18.822017
 103 H     1.0000    0     1.008   13.233646    8.591625  -16.348574
 104 H     1.0000    0     1.008    9.031429    4.669167  -16.858477
 105 H     1.0000    0     1.008    8.884389    7.792974  -18.077713
 106 N     7.0000    0    14.007  -15.225487   10.526254   -2.394382
 107 C     6.0000    0    12.011  -15.582831   10.311655   -5.179258
 108 C     6.0000    0    12.011  -13.138527   10.856229   -6.622273
 109 C     6.0000    0    12.011  -17.018381    8.882832   -0.975244
 110 C     6.0000    0    12.011  -16.103172    6.144281   -0.850425
 111 C     6.0000    0    12.011  -15.348985   13.202116   -1.524830
 112 C     6.0000    0    12.011  -13.756973   13.630020    0.849329
 113 N     7.0000    0    14.007  -11.297821    8.945353   -6.057264
 114 N     7.0000    0    14.007  -13.789644    6.014429    0.559894
 115 N     7.0000    0    14.007  -11.140980   13.196405    0.277640
 116 K    19.0000    0    39.100   -8.906157    8.175296   -1.077386
 117 H     1.0000    0     1.008  -17.072245   11.614633   -5.764397
 118 H     1.0000    0     1.008  -16.184003    8.389668   -5.625465
 119 H     1.0000    0     1.008  -13.582475   10.971068   -8.650744
 120 H     1.0000    0     1.008  -12.338270   12.672202   -6.038538
 121 H     1.0000    0     1.008  -18.873312    8.982796   -1.874464
 122 H     1.0000    0     1.008  -17.187162    9.597582    0.952411
 123 H     1.0000    0     1.008  -17.616593    4.982899   -0.022283
 124 H     1.0000    0     1.008  -15.707124    5.420552   -2.747322
 125 H     1.0000    0     1.008  -17.319624   13.703971   -1.174195
 126 H     1.0000    0     1.008  -14.621905   14.420878   -3.021583
 127 H     1.0000    0     1.008  -14.292861   12.294150    2.335110
 128 H     1.0000    0     1.008  -14.121097   15.553502    1.550863
 129 C     6.0000    0    12.011   12.631330   15.881686    7.529851
 130 C     6.0000    0    12.011   -9.510927   14.796449    0.967598
 131 C     6.0000    0    12.011    7.267517    8.985097  -13.825989
 132 C     6.0000    0    12.011    0.910406   13.655010   -1.190704
 133 C     6.0000    0    12.011    2.775236   14.143107    0.597732
 134 C     6.0000    0    12.011    5.314088   13.813377   -0.004094
 135 C     6.0000    0    12.011    5.981842   12.977752   -2.405605
 136 C     6.0000    0    12.011    4.129921   12.482870   -4.206833
 137 C     6.0000    0    12.011    1.597171   12.823482   -3.589775
 138 C     6.0000    0    12.011   -1.770641   14.024124   -0.561943
 139 C     6.0000    0    12.011   -2.616937   16.199878    0.657638
 140 C     6.0000    0    12.011   -5.166534   16.452820    1.168348
 141 C     6.0000    0    12.011   -6.819871   14.514848    0.467410
 142 N     7.0000    0    14.007   -6.005081   12.413639   -0.665500
 143 C     6.0000    0    12.011   -3.579579   12.193916   -1.168094
 144 C     6.0000    0    12.011    7.278750   14.365665    1.882419
 145 C     6.0000    0    12.011    9.386104   15.827726    1.283617
 146 C     6.0000    0    12.011   11.153757   16.319220    3.143011
 147 C     6.0000    0    12.011   10.791195   15.320526    5.562354
 148 N     7.0000    0    14.007    8.795679   13.884024    6.125066
 149 C     6.0000    0    12.011    7.106633   13.442170    4.353341
 150 C     6.0000    0    12.011    4.854866   11.616867   -6.745601
 151 C     6.0000    0    12.011    6.626932    9.682162   -7.070464
 152 C     6.0000    0    12.011    3.816450   12.678478   -8.921158
 153 C     6.0000    0    12.011    4.606627   11.808873  -11.254836
 154 C     6.0000    0    12.011    6.405846    9.877654  -11.369749
 155 N     7.0000    0    14.007    7.369508    8.831660   -9.286344
 156 H     1.0000    0     1.008   -1.312726   17.688769    1.154206
 157 H     1.0000    0     1.008   -5.871906   18.133095    2.083800
 158 H     1.0000    0     1.008   -3.013737   10.455777   -2.084641
 159 H     1.0000    0     1.008    9.614141   16.606648   -0.588642
 160 H     1.0000    0     1.008   12.784208   17.473897    2.734426
 161 H     1.0000    0     1.008    5.523275   12.270635    4.902626
 162 H     1.0000    0     1.008    7.459610    8.769330   -5.440853
 163 H     1.0000    0     1.008    2.451283   14.189736   -8.793574
 164 H     1.0000    0     1.008    3.853555   12.623374  -12.965949
 165 H     1.0000    0     1.008   14.273950   16.977869    6.897852
 166 H     1.0000    0     1.008  -10.034542   16.526982    1.982494
 167 H     1.0000    0     1.008    6.296817    9.831796  -15.450707
 168 C     6.0000    0    12.011    3.594234   14.408134   14.001631
 169 C     6.0000    0    12.011  -13.554491    4.365403    2.268420
 170 C     6.0000    0    12.011    2.849282   -8.585857   12.209612
 171 C     6.0000    0    12.011   -4.692894    3.484753    8.207073
 172 C     6.0000    0    12.011   -3.551156    5.694376    9.062397
 173 C     6.0000    0    12.011   -1.343861    5.586596   10.486474
 174 C     6.0000    0    12.011   -0.274096    3.250508   11.047690
 175 C     6.0000    0    12.011   -1.404381    1.030628   10.205399
 176 C     6.0000    0    12.011   -3.612997    1.157669    8.782407
 177 C     6.0000    0    12.011   -7.026213    3.620332    6.704273
 178 C     6.0000    0    12.011   -9.107147    2.095625    7.234813
 179 C     6.0000    0    12.011  -11.257407    2.336855    5.770513
 180 C     6.0000    0    12.011  -11.278479    4.084245    3.788969
 181 N     7.0000    0    14.007   -9.272503    5.517916    3.256670
 182 C     6.0000    0    12.011   -7.238992    5.296719    4.671043
 183 C     6.0000    0    12.011   -0.149570    7.923587   11.399005
 184 C     6.0000    0    12.011   -1.553335    9.828164   12.556277
 185 C     6.0000    0    12.011   -0.320891   11.969285   13.405188
 186 C     6.0000    0    12.011    2.291208   12.173321   13.064348
 187 N     7.0000    0    14.007    3.629819   10.369045   11.917594
 188 C     6.0000    0    12.011    2.449668    8.325532   11.131835
 189 C     6.0000    0    12.011   -0.271043   -1.432465   10.813051
 190 C     6.0000    0    12.011    0.032553   -3.292048    8.958300
 191 C     6.0000    0    12.011    0.558424   -2.008583   13.245881
 192 C     6.0000    0    12.011    1.592920   -4.362937   13.705901
 193 C     6.0000    0    12.011    1.799434   -6.090608   11.717714
 194 N     7.0000    0    14.007    1.039817   -5.526430    9.379395
 195 H     1.0000    0     1.008   -9.062487    0.778026    8.792338
 196 H     1.0000    0     1.008  -12.903760    1.199681    6.163961
 197 H     1.0000    0     1.008   -5.663699    6.497645    4.162017
 198 H     1.0000    0     1.008   -3.564584    9.618495   12.830006
 199 H     1.0000    0     1.008   -1.361575   13.456870   14.334139
 200 H     1.0000    0     1.008    3.615438    6.921882   10.208224
 201 H     1.0000    0     1.008   -0.557189   -2.929367    7.034327
 202 H     1.0000    0     1.008    0.355517   -0.658040   14.762121
 203 H     1.0000    0     1.008    2.219364   -4.864047   15.580741
 204 H     1.0000    0     1.008    2.357030   15.861957   14.810903
 205 H     1.0000    0     1.008    3.510330   -8.887061   14.151621
 206 C     6.0000    0    12.011  -10.093869    7.918208   -7.843126
 207 C     6.0000    0    12.011   10.421048   -1.696176  -12.387264
 208 C     6.0000    0    12.011   -3.553679  -11.169725    3.388308
 209 C     6.0000    0    12.011    1.174634   -1.783970   -6.994501
 210 C     6.0000    0    12.011   -0.563978    0.128989   -7.481323
 211 C     6.0000    0    12.011   -2.860756    0.198560   -6.202683
 212 C     6.0000    0    12.011   -3.411699   -1.658067   -4.422404
 213 C     6.0000    0    12.011   -1.684056   -3.574851   -3.919150
 214 C     6.0000    0    12.011    0.608307   -3.627605   -5.207380
 215 C     6.0000    0    12.011    3.587940   -1.860751   -8.369183
 216 C     6.0000    0    12.011    4.506912   -4.096742   -9.416103
 217 C     6.0000    0    12.011    6.766238   -4.046259  -10.726271
 218 C     6.0000    0    12.011    8.074836   -1.761990  -10.951158
 219 N     7.0000    0    14.007    7.220898    0.369422   -9.907072
 220 C     6.0000    0    12.011    5.059367    0.314216   -8.678085
 221 C     6.0000    0    12.011   -4.700567    2.213866   -6.725974
 222 C     6.0000    0    12.011   -5.307018    2.931069   -9.186974
 223 C     6.0000    0    12.011   -7.077974    4.816040   -9.555897
 224 C     6.0000    0    12.011   -8.195224    5.964701   -7.455224
 225 N     7.0000    0    14.007   -7.584408    5.307690   -5.097669
 226 C     6.0000    0    12.011   -5.915915    3.495244   -4.758104
 227 C     6.0000    0    12.011   -2.270903   -5.538039   -2.042723
 228 C     6.0000    0    12.011   -0.497474   -6.250626   -0.215925
 229 C     6.0000    0    12.011   -4.603637   -6.760386   -2.001271
 230 C     6.0000    0    12.011   -5.030024   -8.611028   -0.207235
 231 C     6.0000    0    12.011   -3.120360   -9.193239    1.523414
 232 N     7.0000    0    14.007   -0.899578   -7.997184    1.508086
 233 H     1.0000    0     1.008    3.449704   -5.834415   -9.253054
 234 H     1.0000    0     1.008    7.499251   -5.746371  -11.581175
 235 H     1.0000    0     1.008   -4.447157    1.998477  -10.785434
 236 H     1.0000    0     1.008   -7.602983    5.380221  -11.443991
 237 H     1.0000    0     1.008   -5.486854    3.032162   -2.813163
 238 H     1.0000    0     1.008    1.328580   -5.332755   -0.146133
 239 H     1.0000    0     1.008   -6.041910   -6.306240   -3.375785
 240 H     1.0000    0     1.008   -6.810423   -9.604101   -0.155255
 241 H     1.0000    0     1.008  -10.426996    8.428603   -9.824983
 242 H     1.0000    0     1.008   -5.461657  -11.981166    3.372784
 243 H     1.0000    0     1.008   18.400996    7.514254   -7.833635
 244 H     1.0000    0     1.008   10.767210   -1.703892    6.941446
 245 H     1.0000    0     1.008   13.914566    4.839608    3.401709
 246 H     1.0000    0     1.008   12.384959   -1.776782   -0.972646
 247 H     1.0000    0     1.008    2.250777   14.805681    2.454275
 248 H     1.0000    0     1.008    7.950891   12.737914   -2.881296
 249 H     1.0000    0     1.008    0.157040   12.461851   -4.988195
 250 H     1.0000    0     1.008   -4.394969    7.502317    8.637550
 251 H     1.0000    0     1.008    1.429914    3.157817   12.164979
 252 H     1.0000    0     1.008   -4.506982   -0.559217    8.139429
 253 H     1.0000    0     1.008   -0.138946    1.554451   -8.876979
 254 H     1.0000    0     1.008   -5.200057   -1.625740   -3.442139
 255 H     1.0000    0     1.008    1.945780   -5.122104   -4.835906
 256 H     1.0000    0     1.008    8.756679  -13.366030    1.539350
 257 H     1.0000    0     1.008   11.063875   -3.537414  -13.091265
 258 H     1.0000    0     1.008    4.453757    2.089403   -7.863334
 259 H     1.0000    0     1.008  -15.080144    3.038464    2.727715
 260 H     1.0000    0     1.008   10.580993   13.959462   13.834579
 261 H     1.0000    0     1.008    2.167072  -13.018076    6.878513
 262 H     1.0000    0     1.008  -13.422366    9.880798   -1.997928
 263 H     1.0000    0     1.008   12.841678    4.727648  -13.544020

--------------------------------
INTERNAL COORDINATES (ANGSTROEM)
--------------------------------
 N      0   0   0     0.000000000000     0.00000000     0.00000000
 C      1   0   0     1.489969439774     0.00000000     0.00000000
 C      2   1   0     1.529473324242   111.99742612     0.00000000
 C      1   2   3     1.490267773027   111.84281478   207.24058725
 C      4   1   2     1.529323695397   111.67802259    82.21045753
 C      1   2   3     1.490162124486   111.93903528    80.96666976
 C      6   1   2     1.529421686287   111.74371115   208.57628796
 N      3   2   1     1.435559985857   109.83816595    65.39702341
 N      5   4   1     1.435699848052   109.53548928    62.83209227
 N      7   6   1     1.435574706934   109.64860462    65.49082797
 K      8   3   2     2.919128647955   124.70604712   291.51375657
 H      2   1   3     1.092108981211   108.86389256   237.62183372
 H      2   1   3     1.091542332361   108.72042282   119.60764068
 H      3   2   1     1.100575142136   108.38241674   188.93059230
 H      3   2   1     1.094560881398   110.61091935   307.18749449
 H      4   1   2     1.091988460427   109.02340493   319.77991207
 H      4   1   2     1.091514139806   108.73949717   201.71732369
 H      5   4   1     1.100340992857   108.50631924   186.40143750
 H      5   4   1     1.094505172961   110.57441486   304.63488562
 H      6   1   2     1.092071572730   108.92385552    86.20900733
 H      6   1   2     1.091501117861   108.84007130   328.19109275
 H      7   6   1     1.100500540605   108.50781406   189.03513481
 H      7   6   1     1.094667956247   110.59895157   307.40925195
 C      8   3   2     1.262750948798   119.25754623   131.52110095
 C     24   8   3    12.218823198654   139.76987093   148.21579012
 C      9   5   4    10.734370662883   122.69552115   182.80949555
 C     25  24   8     5.664649137239    30.45720884    66.77083831
 C     27  25  24     1.391875666716   118.21780856     1.16492786
 C     28  27  25     1.391320380325   120.42236376   181.07112899
 C     29  28  27     1.391823731058   119.56852766     0.09005803
 C     30  29  28     1.391484582376   120.42936525   359.83308624
 C     27  25  24     1.391359416749   122.18107182   182.35651904
 C     27  25  24     1.470345837329     2.12105971   151.56401915
 C     33  27  32     1.393839511456   121.69757140    46.49611232
 C     34  33  27     1.382501118189   118.95718106   179.18097185
 C     35  34  33     1.398124351375   119.21296691     0.53424711
 N     36  35  34     1.334885104459   121.85262591     0.53314673
 C     37  36  35     1.316073172981   118.65809638   358.85450568
 C     29  28  27     1.470699977592   120.29847626   180.09633042
 C     39  29  28     1.393744022893   121.66833065    47.10067015
 C     40  39  29     1.382566207977   118.96628940   179.24590131
 C     41  40  39     1.398114858537   119.20675255     0.63034741
 N     42  41  40     1.334890861614   121.84206475     0.50886552
 C     43  42  41     1.316018779905   118.67573617   358.77612628
 C     31  30  29     1.470485780354   120.26965557   180.16310742
 C     45  31  30     1.399151407315   121.07586622   226.88498477
 C     45  31  30     1.393836022468   121.66480013    46.55145656
 C     47  45  31     1.382506959399   118.95829528   179.47964938
 C     48  47  45     1.398131892751   119.20370430     0.77022465
 N     46  45  31     1.315944992840   124.04734013   179.65466867
 H     34  33  27     1.079840480439   120.69245463     0.71137219
 H     35  34  33     1.079155188756   120.32849983   181.01691108
 H     38  37  36     1.082220299633   115.86244540   179.84105363
 H     40  39  29     1.079842612241   120.67719440     0.82137398
 H     41  40  39     1.079108129544   120.31528805   181.07541422
 H     44  43  42     1.082036959150   115.85337397   180.04951644
 H     46  45  31     1.081949758965   120.12888154     0.45054931
 H     47  45  31     1.079864276311   120.68564558     1.03674942
 H     48  47  45     1.079110581225   120.33520874   181.09778255
 H     24   8   3     1.097270869196   121.87426669   359.21940772
 N     25  24   8     4.185887932602    96.96211853   269.03045057
 C     61  25  24     1.490112392438   123.82013558   318.25661114
 C     62  61  25     1.529609472450   111.76787874    24.33447660
 C     61  25  24     1.490207769076   124.16612182   133.92035971
 C     64  61  25     1.529448755637   111.74150570   265.86128175
 C     61  25  24     1.490193894310    51.54895267   225.95490296
 C     66  61  25     1.529414591928   111.81899206   325.03681167
 N     63  62  61     1.435452211089   109.57855441    64.54644746
 N     65  64  61     1.435479470838   109.56583128    64.18122248
 N     25  24   8     1.262697716846    97.94971572   280.37179443
 K     37  36  35     2.707516928875   122.00727776   166.98082859
 H     62  61  25     1.092039478663   108.95017907   261.92701865
 H     62  61  25     1.091592647751   108.75955227   143.87131571
 H     63  62  61     1.100478200030   108.47781456   188.07294934
 H     63  62  61     1.094539316503   110.61083882   306.39472773
 H     64  61  25     1.091958044856   108.97876434   143.41413709
 H     64  61  25     1.091520735441   108.74927561    25.35413541
 H     65  64  61     1.100416359118   108.49093208   187.74461865
 H     65  64  61     1.094584922548   110.62022401   306.07036823
 H     66  61  25     1.092062484483   108.92761130   202.65170172
 H     66  61  25     1.091536073415   108.78907680    84.63355594
 H     67  66  61     1.094626460969   110.58161630   306.86263881
 H     67  66  61     1.100465650508   108.47180574   188.54603810
 N     26   9   5     4.166731787106   144.86798553   196.87738190
 C     84  26   9     1.490350446661    52.15012494   139.48809497
 C     85  84  26     1.529514831922   111.78359522   325.00833956
 C     84  26   9     1.490256289636   123.52103191   232.30741041
 C     87  84  26     1.529581598400   111.64988515    24.08939493
 C     84  26   9     1.490080274717   124.33009928    47.18128671
 C     89  84  26     1.529491227768   112.00547516   265.73163412
 N     26   9   5     1.262681331786   133.46967920   200.46032198
 N     88  87  84     1.435536301384   109.59450967    64.54218458
 N     90  89  84     1.435578197024   109.82220133    65.38342326
 K     50  46  45     2.729900283594   117.93432961   195.09505053
 H     85  84  26     1.091978293280   109.00464574   202.55427035
 H     85  84  26     1.091528326576   108.73596788    84.49205201
 H     86  85  84     1.100467211265   108.47449350   187.16677824
 H     86  85  84     1.094555654355   110.61279153   305.49929644
 H     87  84  26     1.092039740798   108.99819659   261.70326398
 H     87  84  26     1.091457440459   108.81429621   143.64757447
 H     88  87  84     1.100368769848   108.53269249   188.12555083
 H     88  87  84     1.094682113902   110.58058540   306.46617837
 H     89  84  26     1.092105461641   108.86436147   143.31850900
 H     89  84  26     1.091577240993   108.72464345    25.31277746
 H     90  89  84     1.094592461135   110.65795177   307.20356603
 H     90  89  84     1.100548311751   108.37871668   188.92541048
 N     11   8   3    14.273988784624   148.01639133   274.46960832
 C    107  11   8     1.490108949793   125.71825544   220.19420013
 C    108 107  11     1.529448273302   111.84455750   344.71513289
 C    107  11   8     1.490106781882   109.36513612   357.91584317
 C    110 107  11     1.529390626230   111.91039361   297.47621041
 C    107  11   8     1.490327778421    82.68479697   108.48566635
 C    112 107  11     1.529517848432   111.72312047   334.41260806
 N    109 108 107     1.435512739562   109.70266916    65.39358036
 N    111 110 107     1.435453206424   109.74845370    64.26460616
 N    113 112 107     1.435452766702   109.53619530    64.05722625
 K    114 109 108     2.951662945806   125.03998060   293.12303791
 H    108 107  11     1.092016188296   108.89894878   222.32805195
 H    108 107  11     1.091509340856   108.78043924   104.29829228
 H    109 108 107     1.100506789474   108.47273378   188.96100985
 H    109 108 107     1.094631388890   110.59119442   307.25076602
 H    110 107  11     1.092127063097   108.92966509   175.06494155
 H    110 107  11     1.091594663787   108.71294430    57.04259372
 H    111 110 107     1.100519550959   108.41557895   187.82306399
 H    111 110 107     1.094624094419   110.64337913   306.09041953
 H    112 107  11     1.091981369142   108.99053202   211.99835244
 H    112 107  11     1.091478017792   108.77844446    93.94762050
 H    113 112 107     1.094676605170   110.58983574   305.95501292
 H    113 112 107     1.100449427768   108.51725480   187.61745167
 C      9   5   4     1.262647580846   119.31436627   132.63344409
 C    116 113 112     1.262645224745   119.38597115   131.95486010
 C     93  90  89     1.262759285920   119.29622212   131.91197503
 C    131 116 113     5.664058597095   122.36616770   181.14715730
 C    133 131 116     1.391477805513   122.24589843   223.28708425
 C    134 133 131     1.391714947251   120.37865533   179.34004255
 C    135 134 133     1.391184629007   119.60963031   359.65632354
 C    136 135 134     1.391941203874   120.43135376     0.29923415
 C    137 136 135     1.391202747532   119.54939510   359.84711134
 C    133 131 116     1.470274632215     2.12105364   194.47218009
 C    139 133 134     1.393807329918   121.63951614    46.48519976
 C    140 139 133     1.382484816682   118.95106215   179.14285746
 C    141 140 139     1.398127266501   119.19747035     0.50749942
 N    142 141 140     1.334790943337   121.87332390     0.53148882
 C    143 142 141     1.315932674026   118.64920859   358.84200999
 C    135 134 133     1.470679459830   120.14457363   179.15595737
 C    145 135 134     1.393769422851   121.43961072   228.08448447
 C    146 145 135     1.382308383970   118.94979413   179.00055893
 C    147 146 145     1.398276467451   119.19435589     0.54165294
 N    148 147 146     1.334771527577   121.87465561     0.62207613
 C    149 148 147     1.316271353994   118.65118147   358.74911683
 C    137 136 135     1.470393732791   120.04052535   179.58360413
 C    151 137 136     1.398954272995   121.01393978    46.78317806
 C    151 137 136     1.393894938353   121.74664585   226.80357981
 C    153 151 137     1.382626263119   118.96894178   178.96519447
 C    154 153 151     1.398069555153   119.21546045     0.54111766
 N    152 151 137     1.316035075742   124.05003152   180.46417189
 H    140 139 133     1.079876803272   120.66496120     0.72007422
 H    141 140 139     1.079174447872   120.33641100   180.98593654
 H    144 143 142     1.082081590617   115.82324119   179.92065223
 H    146 145 135     1.079842371971   120.65678907     0.57331224
 H    147 146 145     1.079131115345   120.32848982   181.09011983
 H    150 149 148     1.082064456869   115.86437349   180.09293859
 H    152 151 137     1.082196071133   120.11055070     1.29276051
 H    153 151 137     1.079814447927   120.70316842     0.52292063
 H    154 153 151     1.079111349643   120.32091588   181.04520125
 H    130   9   5     1.097228286239   121.84514900   359.39150840
 H    131 116 113     1.097189004184   121.91836249   359.46279342
 H    132  93  90     1.097180581730   121.89793317   359.14478980
 C     10   7   6     1.262632189678   119.25599306   131.79900786
 C    115 111 110     1.262688872640   119.30122629   132.22641083
 C     68  63  62     1.262649753530   119.35383151   131.74381874
 C    170 115 111     5.664200241200   122.39204392   180.72228973
 C    172 170 115     1.391804119604   118.07946733    41.59998658
 C    173 172 170     1.391219246060   120.40948981   181.24597767
 C    174 173 172     1.391712416514   119.57205061     0.19496055
 C    175 174 173     1.391531430749   120.44205535   359.67376810
 C    172 170 115     1.391294143028   122.29495576   222.92899616
 C    172 170 115     1.470424257797     2.18681363   191.25768811
 C    178 172 177     1.393705410514   121.75430000    47.16681080
 C    179 178 172     1.382559566613   118.94186361   179.18357504
 C    180 179 178     1.398102884123   119.20803201     0.53208099
 N    181 180 179     1.334816585844   121.85934309     0.47384855
 C    182 181 180     1.315997292188   118.66609996   358.91831444
 C    174 173 172     1.470367290380   120.28382474   180.33022139
 C    184 174 173     1.393781871445   121.56109587    46.86747118
 C    185 184 174     1.382354790848   118.94875646   179.17568321
 C    186 185 184     1.398156038691   119.19618920     0.45184766
 N    187 186 185     1.334779432932   121.87535249     0.70008416
 C    188 187 186     1.316164706398   118.65458054   358.75160364
 C    176 175 174     1.470362314958   120.19630844   180.24996725
 C    190 176 175     1.399103124859   121.12480141   226.52026506
 C    190 176 175     1.393916708823   121.62112131    46.10884832
 C    192 190 176     1.382437821315   118.97547478   179.56778205
 C    193 192 190     1.398107679059   119.19337446     0.56511842
 N    191 190 176     1.315978397016   124.03257640   179.74268806
 H    179 178 172     1.079825343537   120.68183784     0.68145931
 H    180 179 178     1.079112273252   120.32016229   181.02727446
 H    183 182 181     1.082278083895   115.85156715   179.93498611
 H    185 184 174     1.079834312067   120.66009878     0.70677212
 H    186 185 184     1.079169264078   120.34163563   180.98472354
 H    189 188 187     1.082204076021   115.85674874   179.78498200
 H    191 190 176     1.082035464297   120.14614566     0.43699815
 H    192 190 176     1.079848316431   120.67632358     1.09781013
 H    193 192 190     1.079127923116   120.33090312   181.03709322
 H    169  10   7     1.097222647233   121.86923875   359.33295153
 H    171  68  63     1.097211215743   121.89724297   359.56615685
 C    114 109 108     1.262709400978   119.32080620   132.46334066
 C     92  88  87     1.262632456866   119.33837456   132.78029553
 C     69  65  64     1.262610631466   119.36105786   132.27232158
 C    208  92  88     5.664563846539   122.50151517   181.87218204
 C    210 208  92     1.391965452874   118.14660517    40.36415370
 C    211 210 208     1.391539414653   120.43415223   180.18476194
 C    212 211 210     1.392047242447   119.55937165     0.15530150
 C    213 212 211     1.391250978515   120.42982699   359.97213843
 C    210 208  92     1.391395634541   122.29049205   220.86324045
 C    210 208  92     1.470283510197     2.13514283   202.27765460
 C    216 210 215     1.394079132326   121.53812443    45.76730494
 C    217 216 210     1.382322355211   118.98775054   178.88205212
 C    218 217 216     1.398158816188   119.19417892     0.42677164
 N    219 218 217     1.334769082424   121.84671114     0.89744675
 C    220 219 218     1.316117649502   118.68658888   358.60214000
 C    212 211 210     1.470331620070   120.39466936   180.25985324
 C    222 212 211     1.393926267589   121.72781996    45.73593611
 C    223 222 212     1.382510512183   118.97554098   179.12174377
 C    224 223 222     1.398119194434   119.21261003     0.53158350
 N    225 224 223     1.334830887087   121.83472951     0.58419118
 C    226 225 224     1.315953015752   118.68037787   358.75964682
 C    214 213 212     1.470263086657   120.37339836   180.14558982
 C    228 214 213     1.399072827034   121.02501495   226.49800775
 C    228 214 213     1.393807036876   121.70928919    46.37425756
 C    230 228 214     1.382484271295   118.95332733   179.26202172
 C    231 230 228     1.398163012588   119.20504422     0.41988472
 N    229 228 214     1.315978358873   124.04492974   180.25087499
 H    217 216 210     1.079804177405   120.68368872     0.52961494
 H    218 217 216     1.079125785517   120.33437997   181.07073692
 H    223 222 212     1.079853702156   120.68968871     0.73576875
 H    224 223 222     1.079162995789   120.32163056   181.10115826
 H    227 226 225     1.082077737768   115.83068447   180.05085646
 H    229 228 214     1.082142147916   120.10434279     1.04644526
 H    230 228 214     1.079854245363   120.68661915     0.78692378
 H    231 230 228     1.079147416004   120.32803700   180.93766114
 H    207 114 109     1.097227366924   121.89295639   359.32190721
 H    209  69  65     1.097204761819   121.90677793   359.34325576
 H     26   9   5     1.097205983465    83.57085664   329.22617773
 H     28  27  25     1.079393406880   119.82663385     1.79510963
 H     30  29  28     1.079380499317   119.83631353   180.56555073
 H     32  27  25     1.079349150080   119.75269661   358.22792968
 H    134 133 131     1.079419419023   119.80081086   358.50087293
 H    136 135 134     1.079438108864   119.70805665   179.42175322
 H    138 137 136     1.079357087486   119.75659070   179.31104095
 H    173 172 170     1.079464805987   119.82114347     1.97818989
 H    175 174 173     1.079388873263   119.80584723   180.50072351
 H    177 172 170     1.079356118669   119.73711721   357.94449637
 H    211 210 208     1.079372565802   119.81087018     0.97979855
 H    213 212 211     1.079338622125   119.84803873   180.75302192
 H    215 210 208     1.079360104328   119.75594889   359.00752857
 H     25  24   8     1.097247759456   135.45804563   125.93110935
 H    208  92  88     1.097197532690   121.88721353   359.36258167
 H    221 220 219     1.082147304992   115.78453656   179.84448832
 H    170 115 111     1.097240509177   121.89460578   359.17584683
 H      1   2   3     1.035025037899   107.06470690   323.94095460
 H     61  25  24     1.035015018040    55.48919052    46.26361577
 H    107  11   8     1.034948591029    25.77270460   268.80485210
 H     84  26   9     1.034883963357    54.77655612   319.91342957

---------------------------
INTERNAL COORDINATES (A.U.)
---------------------------
 N      0   0   0     0.000000000000     0.00000000     0.00000000
 C      1   0   0     2.815634189085     0.00000000     0.00000000
 C      2   1   0     2.890285711956   111.99742612     0.00000000
 C      1   2   3     2.816197957230   111.84281478   207.24058725
 C      4   1   2     2.890002954417   111.67802259    82.21045753
 C      1   2   3     2.815998310422   111.93903528    80.96666976
 C      6   1   2     2.890188130362   111.74371115   208.57628796
 N      3   2   1     2.712815222085   109.83816595    65.39702341
 N      5   4   1     2.713079523331   109.53548928    62.83209227
 N      7   6   1     2.712843040889   109.64860462    65.49082797
 K      8   3   2     5.516353694320   124.70604712   291.51375657
 H      2   1   3     2.063786882884   108.86389256   237.62183372
 H      2   1   3     2.062716071744   108.72042282   119.60764068
 H      3   2   1     2.079785608438   108.38241674   188.93059230
 H      3   2   1     2.068420302745   110.61091935   307.18749449
 H      4   1   2     2.063559131609   109.02340493   319.77991207
 H      4   1   2     2.062662795536   108.73949717   201.71732369
 H      5   4   1     2.079343130426   108.50631924   186.40143750
 H      5   4   1     2.068315029057   110.57441486   304.63488562
 H      6   1   2     2.063716191101   108.92385552    86.20900733
 H      6   1   2     2.062638187626   108.84007130   328.19109275
 H      7   6   1     2.079644631976   108.50781406   189.03513481
 H      7   6   1     2.068622644886   110.59895157   307.40925195
 C      8   3   2     2.386253468577   119.25754623   131.52110095
 C     24   8   3    23.090229524260   139.76987093   148.21579012
 C      9   5   4    20.285020772847   122.69552115   182.80949555
 C     25  24   8    10.704635514135    30.45720884    66.77083831
 C     27  25  24     2.630263822563   118.21780856     1.16492786
 C     28  27  25     2.629214483358   120.42236376   181.07112899
 C     29  28  27     2.630165678392   119.56852766     0.09005803
 C     30  29  28     2.629524780265   120.42936525   359.83308624
 C     27  25  24     2.629288251508   122.18107182   182.35651904
 C     27  25  24     2.778550954703     2.12105971   151.56401915
 C     33  27  32     2.633974951291   121.69757140    46.49611232
 C     34  33  27     2.612548493216   118.95718106   179.18097185
 C     35  34  33     2.642072125265   119.21296691     0.53424711
 N     36  35  34     2.522567267678   121.85262591     0.53314673
 C     37  36  35     2.487017869134   118.65809638   358.85450568
 C     29  28  27     2.779220182813   120.29847626   180.09633042
 C     39  29  28     2.633794504057   121.66833065    47.10067015
 C     40  39  29     2.612671495090   118.96628940   179.24590131
 C     41  40  39     2.642054186402   119.20675255     0.63034741
 N     42  41  40     2.522578147125   121.84206475     0.50886552
 C     43  42  41     2.486915081117   118.67573617   358.77612628
 C     31  30  29     2.778815408694   120.26965557   180.16310742
 C     45  31  30     2.644012979717   121.07586622   226.88498477
 C     45  31  30     2.633968358059   121.66480013    46.55145656
 C     47  45  31     2.612559531504   118.95829528   179.47964938
 C     48  47  45     2.642086376399   119.20370430     0.77022465
 N     46  45  31     2.486775643773   124.04734013   179.65466867
 H     34  33  27     2.040602776351   120.69245463     0.71137219
 H     35  34  33     2.039307762749   120.32849983   181.01691108
 H     38  37  36     2.045099982877   115.86244540   179.84105363
 H     40  39  29     2.040606804874   120.67719440     0.82137398
 H     41  40  39     2.039218833727   120.31528805   181.07541422
 H     44  43  42     2.044753519574   115.85337397   180.04951644
 H     46  45  31     2.044588735105   120.12888154     0.45054931
 H     47  45  31     2.040647744033   120.68564558     1.03674942
 H     48  47  45     2.039223466731   120.33520874   181.09778255
 H     24   8   3     2.073541437510   121.87426669   359.21940772
 N     25  24   8     7.910181819904    96.96211853   269.03045057
 C     61  25  24     2.815904330469   123.82013558   318.25661114
 C     62  61  25     2.890542994783   111.76787874    24.33447660
 C     61  25  24     2.816084566196   124.16612182   133.92035971
 C     64  61  25     2.890239284020   111.74150570   265.86128175
 C     61  25  24     2.816058346688    51.54895267   225.95490296
 C     66  61  25     2.890174723967   111.81899206   325.03681167
 N     63  62  61     2.712611557289   109.57855441    64.54644746
 N     65  64  61     2.712663070750   109.56583128    64.18122248
 N     25  24   8     2.386152874767    97.94971572   280.37179443
 K     37  36  35     5.116465498529   122.00727776   166.98082859
 H     62  61  25     2.063655542103   108.95017907   261.92701865
 H     62  61  25     2.062811154051   108.75955227   143.87131571
 H     63  62  61     2.079602414408   108.47781456   188.07294934
 H     63  62  61     2.068379551000   110.61083882   306.39472773
 H     64  61  25     2.063501654510   108.97876434   143.41413709
 H     64  61  25     2.062675259481   108.74927561    25.35413541
 H     65  64  61     2.079485552020   108.49093208   187.74461865
 H     65  64  61     2.068465733935   110.62022401   306.07036823
 H     66  61  25     2.063699016803   108.92761130   202.65170172
 H     66  61  25     2.062704244051   108.78907680    84.63355594
 H     67  66  61     2.068544230175   110.58161630   306.86263881
 H     67  66  61     2.079578699248   108.47180574   188.54603810
 N     26   9   5     7.873981951134   144.86798553   196.87738190
 C     84  26   9     2.816354187757    52.15012494   139.48809497
 C     85  84  26     2.890364150104   111.78359522   325.00833956
 C     84  26   9     2.816176256766   123.52103191   232.30741041
 C     87  84  26     2.890490320461   111.64988515    24.08939493
 C     84  26   9     2.815843636774   124.33009928    47.18128671
 C     89  84  26     2.890319544716   112.00547516   265.73163412
 N     26   9   5     2.386121911490   133.46967920   200.46032198
 N     88  87  84     2.712770464918   109.59450967    64.54218458
 N     90  89  84     2.712849636204   109.82220133    65.38342326
 K     50  46  45     5.158763908906   117.93432961   195.09505053
 H     85  84  26     2.063539918486   109.00464574   202.55427035
 H     85  84  26     2.062689604646   108.73596788    84.49205201
 H     86  85  84     2.079581648651   108.47449350   187.16677824
 H     86  85  84     2.068410425067   110.61279153   305.49929644
 H     87  84  26     2.063656037467   108.99819659   261.70326398
 H     87  84  26     2.062555649297   108.81429621   143.64757447
 H     88  87  84     2.079395621333   108.53269249   188.12555083
 H     88  87  84     2.068649398977   110.58058540   306.46617837
 H     89  84  26     2.063780231860   108.86436147   143.31850900
 H     89  84  26     2.062782039498   108.72464345    25.31277746
 H     90  89  84     2.068479979800   110.65795177   307.20356603
 H     90  89  84     2.079734906359   108.37871668   188.92541048
 N     11   8   3    26.973929641602   148.01639133   274.46960832
 C    107  11   8     2.815897824813   125.71825544   220.19420013
 C    108 107  11     2.890238372540   111.84455750   344.71513289
 C    107  11   8     2.815893728055   109.36513612   357.91584317
 C    110 107  11     2.890129435360   111.91039361   297.47621041
 C    107  11   8     2.816311350991    82.68479697   108.48566635
 C    112 107  11     2.890369850482   111.72312047   334.41260806
 N    109 108 107     2.712725939526   109.70266916    65.39358036
 N    111 110 107     2.712613438201   109.74845370    64.26460616
 N    113 112 107     2.712612607246   109.53619530    64.05722625
 K    114 109 108     5.577834607216   125.03998060   293.12303791
 H    108 107  11     2.063611529688   108.89894878   222.32805195
 H    108 107  11     2.062653726835   108.78043924   104.29829228
 H    109 108 107     2.079656440627   108.47273378   188.96100985
 H    109 108 107     2.068553542595   110.59119442   307.25076602
 H    110 107  11     2.063821052696   108.92966509   175.06494155
 H    110 107  11     2.062814963807   108.71294430    57.04259372
 H    111 110 107     2.079680556339   108.41557895   187.82306399
 H    111 110 107     2.068539758044   110.64337913   306.09041953
 H    112 107  11     2.063545731023   108.99053202   211.99835244
 H    112 107  11     2.062594534822   108.77844446    93.94762050
 H    113 112 107     2.068638988981   110.58983574   305.95501292
 H    113 112 107     2.079548042712   108.51725480   187.61745167
 C      9   5   4     2.386058131458   119.31436627   132.63344409
 C    116 113 112     2.386053679072   119.38597115   131.95486010
 C     93  90  89     2.386269223455   119.29622212   131.91197503
 C    131 116 113    10.703519554992   122.36616770   181.14715730
 C    133 131 116     2.629511973850   122.24589843   223.28708425
 C    134 133 131     2.629960106790   120.37865533   179.34004255
 C    135 134 133     2.628957950544   119.60963031   359.65632354
 C    136 135 134     2.630387669843   120.43135376     0.29923415
 C    137 136 135     2.628992189595   119.54939510   359.84711134
 C    133 131 116     2.778416396539     2.12105364   194.47218009
 C    139 133 134     2.633914136997   121.63951614    46.48519976
 C    140 139 133     2.612517687833   118.95106215   179.14285746
 C    141 140 139     2.642077634054   119.19747035     0.50749942
 N    142 141 140     2.522389328945   121.87332390     0.53148882
 C    143 142 141     2.486752364587   118.64920859   358.84200999
 C    135 134 133     2.779181409861   120.14457363   179.15595737
 C    145 135 134     2.633842503022   121.43961072   228.08448447
 C    146 145 135     2.612184278326   118.94979413   179.00055893
 C    147 146 145     2.642359582988   119.19435589     0.54165294
 N    148 147 146     2.522352638476   121.87465561     0.62207613
 C    149 148 147     2.487392376975   118.65118147   358.74911683
 C    137 136 135     2.778641464010   120.04052535   179.58360413
 C    151 137 136     2.643640449839   121.01393978    46.78317806
 C    151 137 136     2.634079692946   121.74664585   226.80357981
 C    153 151 137     2.612784982861   118.96894178   178.96519447
 C    154 153 151     2.641968575413   119.21546045     0.54111766
 N    152 151 137     2.486945875786   124.05003152   180.46417189
 H    140 139 133     2.040671416558   120.66496120     0.72007422
 H    141 140 139     2.039344157203   120.33641100   180.98593654
 H    144 143 142     2.044837860825   115.82324119   179.92065223
 H    146 145 135     2.040606350830   120.65678907     0.57331224
 H    147 146 145     2.039262270595   120.32848982   181.09011983
 H    150 149 148     2.044805482733   115.86437349   180.09293859
 H    152 151 137     2.045054197646   120.11055070     1.29276051
 H    153 151 137     2.040553582033   120.70316842     0.52292063
 H    154 153 151     2.039224918831   120.32091588   181.04520125
 H    130   9   5     2.073460967384   121.84514900   359.39150840
 H    131 116 113     2.073386735058   121.91836249   359.46279342
 H    132  93  90     2.073370818926   121.89793317   359.14478980
 C     10   7   6     2.386029046364   119.25599306   131.79900786
 C    115 111 110     2.386136161640   119.30122629   132.22641083
 C     68  63  62     2.386062237235   119.35383151   131.74381874
 C    170 115 111    10.703787223560   122.39204392   180.72228973
 C    172 170 115     2.630128618115   118.07946733    41.59998658
 C    173 172 170     2.629023367294   120.40948981   181.24597767
 C    174 173 172     2.629955324389   119.57205061     0.19496055
 C    175 174 173     2.629613310858   120.44205535   359.67376810
 C    172 170 115     2.629164902052   122.29495576   222.92899616
 C    172 170 115     2.778699147911     2.18681363   191.25768811
 C    178 172 177     2.633721537235   121.75430000    47.16681080
 C    179 178 172     2.612658944732   118.94186361   179.18357504
 C    180 179 178     2.642031558038   119.20803201     0.53208099
 N    181 180 179     2.522437786262   121.85934309     0.47384855
 C    182 181 180     2.486874475217   118.66609996   358.91831444
 C    174 173 172     2.778591495094   120.28382474   180.33022139
 C    184 174 173     2.633866027456   121.56109587    46.86747118
 C    185 184 174     2.612271974616   118.94875646   179.17568321
 C    186 185 184     2.642132005613   119.19618920     0.45184766
 N    187 186 185     2.522367577432   121.87535249     0.70008416
 C    188 187 186     2.487190842225   118.65458054   358.75160364
 C    176 175 174     2.778582092909   120.19630844   180.24996725
 C    190 176 175     2.643921739097   121.12480141   226.52026506
 C    190 176 175     2.634120833173   121.62112131    46.10884832
 C    192 190 176     2.612428879459   118.97547478   179.56778205
 C    193 192 190     2.642040619153   119.19337446     0.56511842
 N    191 190 176     2.486838768517   124.03257640   179.74268806
 H    179 178 172     2.040574171753   120.68183784     0.68145931
 H    180 179 178     2.039226664199   120.32016229   181.02727446
 H    183 182 181     2.045209179307   115.85156715   179.93498611
 H    185 184 174     2.040591119818   120.66009878     0.70677212
 H    186 185 184     2.039334361252   120.34163563   180.98472354
 H    189 188 187     2.045069324692   115.85674874   179.78498200
 H    191 190 176     2.044750694711   120.14614566     0.43699815
 H    192 190 176     2.040617584231   120.67632358     1.09781013
 H    193 192 190     2.039256238156   120.33090312   181.03709322
 H    169  10   7     2.073450311207   121.86923875   359.33295153
 H    171  68  63     2.073428708822   121.89724297   359.56615685
 C    114 109 108     2.386174954577   119.32080620   132.46334066
 C     92  88  87     2.386029551277   119.33837456   132.78029553
 C     69  65  64     2.385988307248   119.36105786   132.27232158
 C    208  92  88    10.704474338071   122.50151517   181.87218204
 C    210 208  92     2.630433493812   118.14660517    40.36415370
 C    211 210 208     2.629628398251   120.43415223   180.18476194
 C    212 211 210     2.630588053704   119.55937165     0.15530150
 C    213 212 211     2.629083332944   120.42982699   359.97213843
 C    210 208  92     2.629356693217   122.29049205   220.86324045
 C    210 208  92     2.778433173493     2.13514283   202.27765460
 C    216 210 215     2.634427769111   121.53812443    45.76730494
 C    217 216 210     2.612210680145   118.98775054   178.88205212
 C    218 217 216     2.642137254324   119.19417892     0.42677164
 N    219 218 217     2.522348017807   121.84671114     0.89744675
 C    220 219 218     2.487101917579   118.68658888   358.60214000
 C    212 211 210     2.778524087978   120.39466936   180.25985324
 C    222 212 211     2.634138896622   121.72781996    45.73593611
 C    223 222 212     2.612566245292   118.97554098   179.12174377
 C    224 223 222     2.642062380059   119.21261003     0.53158350
 N    225 224 223     2.522464811693   121.83472951     0.58419118
 C    226 225 224     2.486790804879   118.68037787   358.75964682
 C    214 213 212     2.778394578596   120.37339836   180.14558982
 C    228 214 213     2.643864484506   121.02501495   226.49800775
 C    228 214 213     2.633913583228   121.70928919    46.37425756
 C    230 228 214     2.612516657201   118.95332733   179.26202172
 C    231 230 228     2.642145184370   119.20504422     0.41988472
 N    229 228 214     2.486838696437   124.04492974   180.25087499
 H    217 216 210     2.040534173559   120.68368872     0.52961494
 H    218 217 216     2.039252198679   120.33437997   181.07073692
 H    223 222 212     2.040627761776   120.68968871     0.73576875
 H    224 223 222     2.039322515904   120.32163056   181.10115826
 H    227 226 225     2.044830579994   115.83068447   180.05085646
 H    229 228 214     2.044952297534   120.10434279     1.04644526
 H    230 228 214     2.040628788289   120.68661915     0.78692378
 H    231 230 228     2.039293074376   120.32803700   180.93766114
 H    207 114 109     2.073459230130   121.89295639   359.32190721
 H    209  69  65     2.073416512671   121.90677793   359.34325576
 H     26   9   5     2.073418821249    83.57085664   329.22617773
 H     28  27  25     2.039757929764   119.82663385     1.79510963
 H     30  29  28     2.039733538005   119.83631353   180.56555073
 H     32  27  25     2.039674296531   119.75269661   358.22792968
 H    134 133 131     2.039807085590   119.80081086   358.50087293
 H    136 135 134     2.039842404271   119.70805665   179.42175322
 H    138 137 136     2.039689296055   119.75659070   179.31104095
 H    173 172 170     2.039892854521   119.82114347     1.97818989
 H    175 174 173     2.039749362469   119.80584723   180.50072351
 H    177 172 170     2.039687465256   119.73711721   357.94449637
 H    211 210 208     2.039718545833   119.81087018     0.97979855
 H    213 212 211     2.039654401580   119.84803873   180.75302192
 H    215 210 208     2.039694997060   119.75594889   359.00752857
 H     25  24   8     2.073497766431   135.45804563   125.93110935
 H    208  92  88     2.073402851598   121.88721353   359.36258167
 H    221 220 219     2.044962042996   115.78453656   179.84448832
 H    170 115 111     2.073484065388   121.89460578   359.17584683
 H      1   2   3     1.955913863381   107.06470690   323.94095460
 H     61  25  24     1.955894928592    55.48919052    46.26361577
 H    107  11   8     1.955769399732    25.77270460   268.80485210
 H     84  26   9     1.955647271132    54.77655612   319.91342957

---------------------
BASIS SET INFORMATION
---------------------
There are 4 groups of distinct atoms

 Group   1 Type N   : 11s6p2d contracted to 5s3p2d pattern {62111/411/11}
 Group   2 Type C   : 11s6p1d contracted to 5s3p1d pattern {62111/411/1}
 Group   3 Type K   : 17s11p contracted to 6s4p pattern {842111/6311}
 Group   4 Type H   : 4s1p contracted to 2s1p pattern {31/1}

Atom   0N    basis set group =>   1
Atom   1C    basis set group =>   2
Atom   2C    basis set group =>   2
Atom   3C    basis set group =>   2
Atom   4C    basis set group =>   2
Atom   5C    basis set group =>   2
Atom   6C    basis set group =>   2
Atom   7N    basis set group =>   1
Atom   8N    basis set group =>   1
Atom   9N    basis set group =>   1
Atom  10K    basis set group =>   3
Atom  11H    basis set group =>   4
Atom  12H    basis set group =>   4
Atom  13H    basis set group =>   4
Atom  14H    basis set group =>   4
Atom  15H    basis set group =>   4
Atom  16H    basis set group =>   4
Atom  17H    basis set group =>   4
Atom  18H    basis set group =>   4
Atom  19H    basis set group =>   4
Atom  20H    basis set group =>   4
Atom  21H    basis set group =>   4
Atom  22H    basis set group =>   4
Atom  23C    basis set group =>   2
Atom  24C    basis set group =>   2
Atom  25C    basis set group =>   2
Atom  26C    basis set group =>   2
Atom  27C    basis set group =>   2
Atom  28C    basis set group =>   2
Atom  29C    basis set group =>   2
Atom  30C    basis set group =>   2
Atom  31C    basis set group =>   2
Atom  32C    basis set group =>   2
Atom  33C    basis set group =>   2
Atom  34C    basis set group =>   2
Atom  35C    basis set group =>   2
Atom  36N    basis set group =>   1
Atom  37C    basis set group =>   2
Atom  38C    basis set group =>   2
Atom  39C    basis set group =>   2
Atom  40C    basis set group =>   2
Atom  41C    basis set group =>   2
Atom  42N    basis set group =>   1
Atom  43C    basis set group =>   2
Atom  44C    basis set group =>   2
Atom  45C    basis set group =>   2
Atom  46C    basis set group =>   2
Atom  47C    basis set group =>   2
Atom  48C    basis set group =>   2
Atom  49N    basis set group =>   1
Atom  50H    basis set group =>   4
Atom  51H    basis set group =>   4
Atom  52H    basis set group =>   4
Atom  53H    basis set group =>   4
Atom  54H    basis set group =>   4
Atom  55H    basis set group =>   4
Atom  56H    basis set group =>   4
Atom  57H    basis set group =>   4
Atom  58H    basis set group =>   4
Atom  59H    basis set group =>   4
Atom  60N    basis set group =>   1
Atom  61C    basis set group =>   2
Atom  62C    basis set group =>   2
Atom  63C    basis set group =>   2
Atom  64C    basis set group =>   2
Atom  65C    basis set group =>   2
Atom  66C    basis set group =>   2
Atom  67N    basis set group =>   1
Atom  68N    basis set group =>   1
Atom  69N    basis set group =>   1
Atom  70K    basis set group =>   3
Atom  71H    basis set group =>   4
Atom  72H    basis set group =>   4
Atom  73H    basis set group =>   4
[...]
165 H      0.8410     1.0000     0.1590     0.9695     0.9695    -0.0000
166 H      0.8407     1.0000     0.1593     0.9694     0.9694    -0.0000
167 H      0.8410     1.0000     0.1590     0.9695     0.9695    -0.0000
168 C      6.2811     6.0000    -0.2811     4.0622     4.0622     0.0000
169 C      6.2790     6.0000    -0.2790     4.0622     4.0622     0.0000
170 C      6.2804     6.0000    -0.2804     4.0642     4.0642    -0.0000
171 C      5.8429     6.0000     0.1571     3.5158     3.5158    -0.0000
172 C      6.2617     6.0000    -0.2617     3.7951     3.7951     0.0000
173 C      5.8427     6.0000     0.1573     3.5153     3.5153    -0.0000
174 C      6.2621     6.0000    -0.2621     3.7976     3.7976    -0.0000
175 C      5.8411     6.0000     0.1589     3.5123     3.5123    -0.0000
176 C      6.2593     6.0000    -0.2593     3.7926     3.7926    -0.0000
177 C      5.9260     6.0000     0.0740     3.4168     3.4168     0.0000
178 C      6.2119     6.0000    -0.2119     3.7920     3.7920     0.0000
179 C      6.2297     6.0000    -0.2297     3.8320     3.8320     0.0000
180 C      5.6553     6.0000     0.3447     3.5830     3.5830     0.0000
181 N      7.2022     7.0000    -0.2022     2.9737     2.9737    -0.0000
182 C      6.1303     6.0000    -0.1303     3.9930     3.9930     0.0000
183 C      5.9244     6.0000     0.0756     3.4105     3.4105     0.0000
184 C      6.2127     6.0000    -0.2127     3.7934     3.7934     0.0000
185 C      6.2308     6.0000    -0.2308     3.8336     3.8336     0.0000
186 C      5.6537     6.0000     0.3463     3.5812     3.5812    -0.0000
187 N      7.2014     7.0000    -0.2014     2.9728     2.9728    -0.0000
188 C      6.1297     6.0000    -0.1297     3.9914     3.9914     0.0000
189 C      5.9256     6.0000     0.0744     3.4124     3.4124     0.0000
190 C      6.1303     6.0000    -0.1303     3.9872     3.9872     0.0000
191 C      6.2109     6.0000    -0.2109     3.7919     3.7919     0.0000
192 C      6.2318     6.0000    -0.2318     3.8357     3.8357    -0.0000
193 C      5.6531     6.0000     0.3469     3.5826     3.5826    -0.0000
194 N      7.2025     7.0000    -0.2025     2.9724     2.9724     0.0000
195 H      0.8046     1.0000     0.1954     0.9530     0.9530     0.0000
196 H      0.8025     1.0000     0.1975     0.9523     0.9523     0.0000
197 H      0.8359     1.0000     0.1641     0.9602     0.9602     0.0000
198 H      0.8047     1.0000     0.1953     0.9530     0.9530     0.0000
199 H      0.8025     1.0000     0.1975     0.9523     0.9523     0.0000
200 H      0.8358     1.0000     0.1642     0.9602     0.9602     0.0000
201 H      0.8352     1.0000     0.1648     0.9599     0.9599     0.0000
202 H      0.8046     1.0000     0.1954     0.9530     0.9530     0.0000
203 H      0.8027     1.0000     0.1973     0.9524     0.9524    -0.0000
204 H      0.8409     1.0000     0.1591     0.9695     0.9695    -0.0000
205 H      0.8411     1.0000     0.1589     0.9695     0.9695     0.0000
206 C      6.2811     6.0000    -0.2811     4.0656     4.0656    -0.0000
207 C      6.2785     6.0000    -0.2785     4.0618     4.0618     0.0000
208 C      6.2779     6.0000    -0.2779     4.0605     4.0605    -0.0000
209 C      5.8424     6.0000     0.1576     3.5134     3.5134    -0.0000
210 C      6.2603     6.0000    -0.2603     3.7935     3.7935    -0.0000
211 C      5.8414     6.0000     0.1586     3.5123     3.5123    -0.0000
212 C      6.2603     6.0000    -0.2603     3.7928     3.7928    -0.0000
213 C      5.8425     6.0000     0.1575     3.5159     3.5159    -0.0000
214 C      6.2599     6.0000    -0.2599     3.7917     3.7917     0.0000
215 C      5.9243     6.0000     0.0757     3.4102     3.4102     0.0000
216 C      6.2131     6.0000    -0.2131     3.7955     3.7955    -0.0000
217 C      6.2311     6.0000    -0.2311     3.8350     3.8350    -0.0000
218 C      5.6554     6.0000     0.3446     3.5814     3.5814    -0.0000
219 N      7.1997     7.0000    -0.1997     2.9713     2.9713    -0.0000
220 C      6.1305     6.0000    -0.1305     3.9902     3.9902    -0.0000
221 C      5.9243     6.0000     0.0757     3.4095     3.4095    -0.0000
222 C      6.2115     6.0000    -0.2115     3.7919     3.7919    -0.0000
223 C      6.2321     6.0000    -0.2321     3.8353     3.8353    -0.0000
224 C      5.6542     6.0000     0.3458     3.5832     3.5832    -0.0000
225 N      7.2021     7.0000    -0.2021     2.9734     2.9734     0.0000
226 C      6.1310     6.0000    -0.1310     3.9901     3.9901    -0.0000
227 C      5.9271     6.0000     0.0729     3.4165     3.4165    -0.0000
228 C      6.1282     6.0000    -0.1282     3.9916     3.9916    -0.0000
229 C      6.2122     6.0000    -0.2122     3.7920     3.7920    -0.0000
230 C      6.2310     6.0000    -0.2310     3.8330     3.8330    -0.0000
231 C      5.6555     6.0000     0.3445     3.5846     3.5846    -0.0000
232 N      7.2014     7.0000    -0.2014     2.9718     2.9718     0.0000
233 H      0.8047     1.0000     0.1953     0.9530     0.9530    -0.0000
234 H      0.8028     1.0000     0.1972     0.9525     0.9525    -0.0000
235 H      0.8048     1.0000     0.1952     0.9531     0.9531    -0.0000
236 H      0.8026     1.0000     0.1974     0.9524     0.9524    -0.0000
237 H      0.8356     1.0000     0.1644     0.9601     0.9601     0.0000
238 H      0.8363     1.0000     0.1637     0.9604     0.9604     0.0000
239 H      0.8047     1.0000     0.1953     0.9531     0.9531    -0.0000
240 H      0.8025     1.0000     0.1975     0.9523     0.9523     0.0000
241 H      0.8409     1.0000     0.1591     0.9695     0.9695     0.0000
242 H      0.8408     1.0000     0.1592     0.9695     0.9695    -0.0000
243 H      0.8408     1.0000     0.1592     0.9695     0.9695     0.0000
244 H      0.8136     1.0000     0.1864     0.9570     0.9570    -0.0000
245 H      0.8133     1.0000     0.1867     0.9569     0.9569    -0.0000
246 H      0.8133     1.0000     0.1867     0.9569     0.9569    -0.0000
247 H      0.8133     1.0000     0.1867     0.9568     0.9568     0.0000
248 H      0.8135     1.0000     0.1865     0.9569     0.9569     0.0000
249 H      0.8133     1.0000     0.1867     0.9569     0.9569     0.0000
250 H      0.8136     1.0000     0.1864     0.9570     0.9570     0.0000
251 H      0.8137     1.0000     0.1863     0.9570     0.9570    -0.0000
252 H      0.8132     1.0000     0.1868     0.9568     0.9568     0.0000
253 H      0.8139     1.0000     0.1861     0.9571     0.9571    -0.0000
254 H      0.8137     1.0000     0.1863     0.9571     0.9571    -0.0000
255 H      0.8138     1.0000     0.1862     0.9571     0.9571     0.0000
256 H      0.8411     1.0000     0.1589     0.9696     0.9696     0.0000
257 H      0.8409     1.0000     0.1591     0.9695     0.9695     0.0000
258 H      0.8360     1.0000     0.1640     0.9603     0.9603    -0.0000
259 H      0.8406     1.0000     0.1594     0.9694     0.9694     0.0000
260 H      0.7204     1.0000     0.2796     0.9671     0.9671     0.0000
261 H      0.7197     1.0000     0.2803     0.9667     0.9667     0.0000
262 H      0.7207     1.0000     0.2793     0.9672     0.9672    -0.0000
263 H      0.7211     1.0000     0.2789     0.9676     0.9676    -0.0000

  Mayer bond orders larger than 0.100000
B(  0-N ,  1-C ) :   0.8875 B(  0-N ,  3-C ) :   0.8874 B(  0-N ,  5-C ) :   0.8870 
B(  0-N ,260-H ) :   0.8439 B(  1-C ,  2-C ) :   0.9146 B(  1-C , 11-H ) :   0.9296 
B(  1-C , 12-H ) :   0.9256 B(  2-C ,  7-N ) :   0.8544 B(  2-C , 13-H ) :   0.9386 
B(  2-C , 14-H ) :   0.9393 B(  3-C ,  4-C ) :   0.9157 B(  3-C , 15-H ) :   0.9297 
B(  3-C , 16-H ) :   0.9262 B(  4-C ,  8-N ) :   0.8528 B(  4-C , 17-H ) :   0.9396 
B(  4-C , 18-H ) :   0.9386 B(  5-C ,  6-C ) :   0.9146 B(  5-C , 19-H ) :   0.9305 
B(  5-C , 20-H ) :   0.9252 B(  6-C ,  9-N ) :   0.8533 B(  6-C , 21-H ) :   0.9392 
B(  6-C , 22-H ) :   0.9392 B(  7-N , 23-C ) :   1.9954 B(  7-N , 41-C ) :  -0.1408 
B(  8-N ,129-C ) :   1.9860 B(  8-N ,147-C ) :  -0.1398 B(  9-N ,168-C ) :   1.9920 
B(  9-N ,186-C ) :  -0.1419 B( 23-C , 41-C ) :   0.9784 B( 23-C , 59-H ) :   0.9089 
B( 24-C , 35-C ) :   0.9773 B( 24-C , 69-N ) :   1.9936 B( 24-C ,256-H ) :   0.9087 
B( 25-C , 48-C ) :   0.9747 B( 25-C , 90-N ) :   1.9902 B( 25-C ,243-H ) :   0.9106 
B( 26-C , 27-C ) :   1.3844 B( 26-C , 31-C ) :   1.3623 B( 26-C , 32-C ) :   0.7548 
B( 27-C , 28-C ) :   1.3626 B( 27-C ,244-H ) :   0.9229 B( 28-C , 29-C ) :   1.3850 
B( 28-C , 38-C ) :   0.7547 B( 29-C , 30-C ) :   1.3616 B( 29-C ,245-H ) :   0.9230 
B( 30-C , 31-C ) :   1.3832 B( 30-C , 44-C ) :   0.7556 B( 31-C ,246-H ) :   0.9226 
B( 32-C , 33-C ) :   1.3265 B( 32-C , 37-C ) :   1.3540 B( 33-C , 34-C ) :   1.3886 
B( 33-C , 50-H ) :   0.9508 B( 34-C , 35-C ) :   1.3806 B( 34-C , 51-H ) :   0.9128 
B( 35-C , 36-N ) :   1.2248 B( 35-C , 69-N ) :  -0.1417 B( 36-N , 37-C ) :   1.4981 
B( 37-C , 52-H ) :   0.9341 B( 38-C , 39-C ) :   1.3269 B( 38-C , 43-C ) :   1.3518 
B( 39-C , 40-C ) :   1.3880 B( 39-C , 53-H ) :   0.9510 B( 40-C , 41-C ) :   1.3820 
B( 40-C , 54-H ) :   0.9127 B( 41-C , 42-N ) :   1.2239 B( 42-N , 43-C ) :   1.4985 
B( 43-C , 55-H ) :   0.9357 B( 44-C , 45-C ) :   1.3553 B( 44-C , 46-C ) :   1.3268 
B( 45-C , 49-N ) :   1.4933 B( 45-C , 56-H ) :   0.9348 B( 46-C , 47-C ) :   1.3880 
B( 46-C , 57-H ) :   0.9509 B( 47-C , 48-C ) :   1.3813 B( 47-C , 58-H ) :   0.9127 
B( 48-C , 49-N ) :   1.2201 B( 48-C , 90-N ) :  -0.1401 B( 60-N , 61-C ) :   0.8881 
B( 60-N , 63-C ) :   0.8875 B( 60-N , 65-C ) :   0.8880 B( 60-N ,261-H ) :   0.8434 
B( 61-C , 62-C ) :   0.9126 B( 61-C , 71-H ) :   0.9299 B( 61-C , 72-H ) :   0.9260 
B( 62-C , 67-N ) :   0.8516 B( 62-C , 73-H ) :   0.9387 B( 62-C , 74-H ) :   0.9398 
B( 63-C , 64-C ) :   0.9132 B( 63-C , 75-H ) :   0.9301 B( 63-C , 76-H ) :   0.9264 
B( 64-C , 68-N ) :   0.8516 B( 64-C , 77-H ) :   0.9388 B( 64-C , 78-H ) :   0.9393 
B( 65-C , 66-C ) :   0.9144 B( 65-C , 79-H ) :   0.9301 B( 65-C , 80-H ) :   0.9256 
B( 66-C , 69-N ) :   0.8538 B( 66-C , 81-H ) :   0.9395 B( 66-C , 82-H ) :   0.9390 
B( 67-N ,170-C ) :   1.9921 B( 67-N ,193-C ) :  -0.1404 B( 68-N ,208-C ) :   1.9880 
B( 68-N ,231-C ) :  -0.1408 B( 83-N , 84-C ) :   0.8877 B( 83-N , 86-C ) :   0.8871 
B( 83-N , 88-C ) :   0.8868 B( 83-N ,263-H ) :   0.8441 B( 84-C , 85-C ) :   0.9130 
B( 84-C , 94-H ) :   0.9294 B( 84-C , 95-H ) :   0.9262 B( 85-C , 90-N ) :   0.8507 
B( 85-C , 96-H ) :   0.9390 B( 85-C , 97-H ) :   0.9405 B( 86-C , 87-C ) :   0.9133 
B( 86-C , 98-H ) :   0.9307 B( 86-C , 99-H ) :   0.9259 B( 87-C , 91-N ) :   0.8512 
B( 87-C ,100-H ) :   0.9389 B( 87-C ,101-H ) :   0.9386 B( 88-C , 89-C ) :   0.9134 
B( 88-C ,102-H ) :   0.9305 B( 88-C ,103-H ) :   0.9255 B( 89-C , 92-N ) :   0.8545 
B( 89-C ,104-H ) :   0.9391 B( 89-C ,105-H ) :   0.9388 B( 91-N ,207-C ) :   1.9895 
B( 91-N ,218-C ) :  -0.1412 B( 92-N ,131-C ) :   1.9949 B( 92-N ,154-C ) :  -0.1424 
B(106-N ,107-C ) :   0.8874 B(106-N ,109-C ) :   0.8871 B(106-N ,111-C ) :   0.8877 
B(106-N ,262-H ) :   0.8443 B(107-C ,108-C ) :   0.9126 B(107-C ,117-H ) :   0.9301 
B(107-C ,118-H ) :   0.9260 B(108-C ,113-N ) :   0.8526 B(108-C ,119-H ) :   0.9385 
B(108-C ,120-H ) :   0.9391 B(109-C ,110-C ) :   0.9146 B(109-C ,121-H ) :   0.9301 
B(109-C ,122-H ) :   0.9258 B(110-C ,114-N ) :   0.8536 B(110-C ,123-H ) :   0.9391 
B(110-C ,124-H ) :   0.9389 B(111-C ,112-C ) :   0.9139 B(111-C ,125-H ) :   0.9296 
B(111-C ,126-H ) :   0.9263 B(112-C ,115-N ) :   0.8516 B(112-C ,127-H ) :   0.9395 
B(112-C ,128-H ) :   0.9394 B(113-N ,206-C ) :   1.9933 B(113-N ,224-C ) :  -0.1418 
B(114-N ,169-C ) :   1.9916 B(114-N ,180-C ) :  -0.1414 B(115-N ,130-C ) :   1.9893 
B(115-N ,141-C ) :  -0.1409 B(129-C ,147-C ) :   0.9762 B(129-C ,165-H ) :   0.9099 
B(130-C ,141-C ) :   0.9753 B(130-C ,166-H ) :   0.9102 B(131-C ,154-C ) :   0.9766 
B(131-C ,167-H ) :   0.9086 B(132-C ,133-C ) :   1.3609 B(132-C ,137-C ) :   1.3850 
B(132-C ,138-C ) :   0.7554 B(133-C ,134-C ) :   1.3871 B(133-C ,247-H ) :   0.9232 
B(134-C ,135-C ) :   1.3609 B(134-C ,144-C ) :   0.7540 B(135-C ,136-C ) :   1.3839 
B(135-C ,248-H ) :   0.9236 B(136-C ,137-C ) :   1.3608 B(136-C ,150-C ) :   0.7547 
B(137-C ,249-H ) :   0.9227 B(138-C ,139-C ) :   1.3273 B(138-C ,143-C ) :   1.3578 
B(139-C ,140-C ) :   1.3884 B(139-C ,156-H ) :   0.9506 B(140-C ,141-C ) :   1.3804 
B(140-C ,157-H ) :   0.9130 B(141-C ,142-N ) :   1.2213 B(142-N ,143-C ) :   1.4934 
B(143-C ,158-H ) :   0.9332 B(144-C ,145-C ) :   1.3296 B(144-C ,149-C ) :   1.3584 
B(145-C ,146-C ) :   1.3899 B(145-C ,159-H ) :   0.9506 B(146-C ,147-C ) :   1.3800 
B(146-C ,160-H ) :   0.9127 B(147-C ,148-N ) :   1.2221 B(148-N ,149-C ) :   1.4918 
B(149-C ,161-H ) :   0.9335 B(150-C ,151-C ) :   1.3527 B(150-C ,152-C ) :   1.3272 
B(151-C ,155-N ) :   1.5015 B(151-C ,162-H ) :   0.9336 B(152-C ,153-C ) :   1.3881 
B(152-C ,163-H ) :   0.9507 B(153-C ,154-C ) :   1.3807 B(153-C ,164-H ) :   0.9126 
B(154-C ,155-N ) :   1.2268 B(168-C ,186-C ) :   0.9764 B(168-C ,204-H ) :   0.9091 
B(169-C ,180-C ) :   0.9763 B(169-C ,259-H ) :   0.9092 B(170-C ,193-C ) :   0.9765 
B(170-C ,205-H ) :   0.9093 B(171-C ,172-C ) :   1.3847 B(171-C ,176-C ) :   1.3629 
B(171-C ,177-C ) :   0.7542 B(172-C ,173-C ) :   1.3606 B(172-C ,250-H ) :   0.9232 
B(173-C ,174-C ) :   1.3870 B(173-C ,183-C ) :   0.7539 B(174-C ,175-C ) :   1.3619 
B(174-C ,251-H ) :   0.9228 B(175-C ,176-C ) :   1.3820 B(175-C ,189-C ) :   0.7553 
B(176-C ,252-H ) :   0.9226 B(177-C ,178-C ) :   1.3265 B(177-C ,182-C ) :   1.3580 
B(178-C ,179-C ) :   1.3877 B(178-C ,195-H ) :   0.9511 B(179-C ,180-C ) :   1.3802 
B(179-C ,196-H ) :   0.9129 B(180-C ,181-N ) :   1.2252 B(181-N ,182-C ) :   1.4986 
B(182-C ,197-H ) :   0.9324 B(183-C ,184-C ) :   1.3261 B(183-C ,188-C ) :   1.3561 
B(184-C ,185-C ) :   1.3888 B(184-C ,198-H ) :   0.9506 B(185-C ,186-C ) :   1.3795 
B(185-C ,199-H ) :   0.9133 B(186-C ,187-N ) :   1.2254 B(187-N ,188-C ) :   1.4968 
B(188-C ,200-H ) :   0.9340 B(189-C ,190-C ) :   1.3547 B(189-C ,191-C ) :   1.3265 
B(190-C ,194-N ) :   1.4957 B(190-C ,201-H ) :   0.9344 B(191-C ,192-C ) :   1.3885 
B(191-C ,202-H ) :   0.9507 B(192-C ,193-C ) :   1.3814 B(192-C ,203-H ) :   0.9126 
B(193-C ,194-N ) :   1.2216 B(206-C ,224-C ) :   0.9774 B(206-C ,241-H ) :   0.9088 
B(207-C ,218-C ) :   0.9774 B(207-C ,257-H ) :   0.9083 B(208-C ,231-C ) :   0.9784 
B(208-C ,242-H ) :   0.9083 B(209-C ,210-C ) :   1.3855 B(209-C ,214-C ) :   1.3592 
B(209-C ,215-C ) :   0.7553 B(210-C ,211-C ) :   1.3616 B(210-C ,253-H ) :   0.9222 
B(211-C ,212-C ) :   1.3823 B(211-C ,221-C ) :   0.7558 B(212-C ,213-C ) :   1.3629 
B(212-C ,254-H ) :   0.9221 B(213-C ,214-C ) :   1.3846 B(213-C ,227-C ) :   0.7542 
B(214-C ,255-H ) :   0.9226 B(215-C ,216-C ) :   1.3267 B(215-C ,220-C ) :   1.3557 
B(216-C ,217-C ) :   1.3905 B(216-C ,233-H ) :   0.9501 B(217-C ,218-C ) :   1.3795 
B(217-C ,234-H ) :   0.9131 B(218-C ,219-N ) :   1.2222 B(219-N ,220-C ) :   1.4956 
B(220-C ,258-H ) :   0.9328 B(221-C ,222-C ) :   1.3253 B(221-C ,226-C ) :   1.3547 
B(222-C ,223-C ) :   1.3888 B(222-C ,235-H ) :   0.9503 B(223-C ,224-C ) :   1.3807 
B(223-C ,236-H ) :   0.9131 B(224-C ,225-N ) :   1.2233 B(225-N ,226-C ) :   1.4979 
B(226-C ,237-H ) :   0.9333 B(227-C ,228-C ) :   1.3590 B(227-C ,229-C ) :   1.3264 
B(228-C ,232-N ) :   1.4960 B(228-C ,238-H ) :   0.9321 B(229-C ,230-C ) :   1.3882 
B(229-C ,239-H ) :   0.9506 B(230-C ,231-C ) :   1.3802 B(230-C ,240-H ) :   0.9131 
B(231-C ,232-N ) :   1.2232 

-------
TIMINGS
-------

Total SCF time: 0 days 0 hours 31 min 37 sec 

Total time                  ....    1897.389 sec
Sum of individual times     ....    1828.587 sec  ( 96.4%)

Fock matrix formation       ....    1540.522 sec  ( 81.2%)
  Split-RI-J                ....     427.885 sec  ( 27.8% of F)
  XC integration            ....     400.087 sec  ( 26.0% of F)
    Basis function eval.    ....      66.428 sec  ( 16.6% of XC)
    Density eval.           ....     174.670 sec  ( 43.7% of XC)
    XC-Functional eval.     ....      23.794 sec  (  5.9% of XC)
    XC-Potential eval.      ....     108.230 sec  ( 27.1% of XC)
Diagonalization             ....      27.806 sec  (  1.5%)
Density matrix formation    ....       7.493 sec  (  0.4%)
Population analysis         ....       6.637 sec  (  0.3%)
Initial guess               ....      27.897 sec  (  1.5%)
Orbital Transformation      ....       0.000 sec  (  0.0%)
Orbital Orthonormalization  ....       0.000 sec  (  0.0%)
DIIS solution               ....      16.695 sec  (  0.9%)
SOSCF solution              ....      41.587 sec  (  2.2%)
Grid generation             ....     159.950 sec  (  8.4%)

Maximum memory used throughout the entire SCF-calculation: 4444.8 MB


-------------------------------------------------------------------------------
                          DFT DISPERSION CORRECTION                            
                                                                               
                                 DFTD4 V2.5                                    
-------------------------------------------------------------------------------
The R2SCAN3C composite method is recognized
Using three-body term ABC
Active option DFTDOPT                   ...         5   

Starting D4
-------------------------   ----------------
Dispersion correction           -0.165551705
-------------------------   ----------------

------------------   -----------------
gCP correction             0.166836249
------------------   -----------------

-------------------------   --------------------
FINAL SINGLE POINT ENERGY     -8570.567897739224
-------------------------   --------------------


                            ***************************************
                            *     ORCA property calculations      *
                            ***************************************

                                    ---------------------
                                    Active property flags
                                    ---------------------
   (+) Dipole Moment


------------------------------------------------------------------------------
                       ORCA ELECTRIC PROPERTIES CALCULATION
------------------------------------------------------------------------------

Dipole Moment Calculation                       ... on
Quadrupole Moment Calculation                   ... off
Polarizability Calculation                      ... off
GBWName                                         ... ORCA.gbw
Electron density                                ... ORCA.scfp
The origin for moment calculation is the CENTER OF MASS  = ( 3.042943,  3.868302  1.303362)

-------------
DIPOLE MOMENT
-------------
                                X             Y             Z
Electronic contribution:      0.20673      -0.25502       0.31082
Nuclear contribution   :     -0.20848       0.32078      -0.30413
                        -----------------------------------------
Total Dipole Moment    :     -0.00174       0.06576       0.00668
                        -----------------------------------------
Magnitude (a.u.)       :      0.06612
Magnitude (Debye)      :      0.16807



--------------------
Rotational spectrum 
--------------------
 
Rotational constants in cm-1:     0.000194     0.000193     0.000192 
Rotational constants in MHz :     5.803596     5.781833     5.757888 

 Dipole components along the rotational axes: 
x,y,z [a.u.] :    -0.028008     0.052896     0.028101 
x,y,z [Debye]:    -0.071191     0.134451     0.071428 

 

Timings for individual modules:

Sum of individual times         ...     1915.193 sec (=  31.920 min)
GTO integral calculation        ...       16.404 sec (=   0.273 min)   0.9 %
SCF iterations                  ...     1898.789 sec (=  31.646 min)  99.1 %
                             ****ORCA TERMINATED NORMALLY****
TOTAL RUN TIME: 0 days 0 hours 32 minutes 3 seconds 864 msec
