
                                 *****************
                                 * O   R   C   A *
                                 *****************

                                            #,                                       
                                            ###                                      
                                            ####                                     
                                            #####                                    
                                            ######                                   
                                           ########,                                 
                                     ,,################,,,,,                         
                               ,,#################################,,                 
                          ,,##########################################,,             
                       ,#########################################, ''#####,          
                    ,#############################################,,   '####,        
                  ,##################################################,,,,####,       
                ,###########''''           ''''###############################       
              ,#####''   ,,,,##########,,,,          '''####'''          '####       
            ,##' ,,,,###########################,,,                        '##       
           ' ,,###''''                  '''############,,,                           
         ,,##''                                '''############,,,,        ,,,,,,###''
      ,#''                                            '''#######################'''  
     '                                                          ''''####''''         
             ,#######,   #######,   ,#######,      ##                                
            ,#'     '#,  ##    ##  ,#'     '#,    #''#        ######   ,####,        
            ##       ##  ##   ,#'  ##            #'  '#       #        #'  '#        
            ##       ##  #######   ##           ,######,      #####,   #    #        
            '#,     ,#'  ##    ##  '#,     ,#' ,#      #,         ##   #,  ,#        
             '#######'   ##     ##  '#######'  #'      '#     #####' # '####'        



                  #######################################################
                  #                        -***-                        #
                  #          Department of theory and spectroscopy      #
                  #    Directorship and core code : Frank Neese         #
                  #        Max Planck Institute fuer Kohlenforschung    #
                  #                Kaiser Wilhelm Platz 1               #
                  #                 D-45470 Muelheim/Ruhr               #
                  #                      Germany                        #
                  #                                                     #
                  #                  All rights reserved                #
                  #                        -***-                        #
                  #######################################################


                         Program Version 5.0.4 -  RELEASE  -


 With contributions from (in alphabetic order):
   Daniel Aravena         : Magnetic Suceptibility
   Michael Atanasov       : Ab Initio Ligand Field Theory (pilot matlab implementation)
   Alexander A. Auer      : GIAO ZORA, VPT2 properties, NMR spectrum
   Ute Becker             : Parallelization
   Giovanni Bistoni       : ED, misc. LED, open-shell LED, HFLD
   Martin Brehm           : Molecular dynamics
   Dmytro Bykov           : SCF Hessian
   Vijay G. Chilkuri      : MRCI spin determinant printing, contributions to CSF-ICE
   Dipayan Datta          : RHF DLPNO-CCSD density
   Achintya Kumar Dutta   : EOM-CC, STEOM-CC
   Dmitry Ganyushin       : Spin-Orbit,Spin-Spin,Magnetic field MRCI
   Miquel Garcia          : C-PCM and meta-GGA Hessian, CC/C-PCM, Gaussian charge scheme
   Yang Guo               : DLPNO-NEVPT2, F12-NEVPT2, CIM, IAO-localization
   Andreas Hansen         : Spin unrestricted coupled pair/coupled cluster methods
   Benjamin Helmich-Paris : MC-RPA, TRAH-SCF, COSX integrals
   Lee Huntington         : MR-EOM, pCC
   Robert Izsak           : Overlap fitted RIJCOSX, COSX-SCS-MP3, EOM
   Marcus Kettner         : VPT2
   Christian Kollmar      : KDIIS, OOCD, Brueckner-CCSD(T), CCSD density, CASPT2, CASPT2-K
   Simone Kossmann        : Meta GGA functionals, TD-DFT gradient, OOMP2, MP2 Hessian
   Martin Krupicka        : Initial AUTO-CI
   Lucas Lang             : DCDCAS
   Marvin Lechner         : AUTO-CI (C++ implementation), FIC-MRCC
   Dagmar Lenk            : GEPOL surface, SMD
   Dimitrios Liakos       : Extrapolation schemes; Compound Job, initial MDCI parallelization
   Dimitrios Manganas     : Further ROCIS development; embedding schemes
   Dimitrios Pantazis     : SARC Basis sets
   Anastasios Papadopoulos: AUTO-CI, single reference methods and gradients
   Taras Petrenko         : DFT Hessian,TD-DFT gradient, ASA, ECA, R-Raman, ABS, FL, XAS/XES, NRVS
   Peter Pinski           : DLPNO-MP2, DLPNO-MP2 Gradient
   Christoph Reimann      : Effective Core Potentials
   Marius Retegan         : Local ZFS, SOC
   Christoph Riplinger    : Optimizer, TS searches, QM/MM, DLPNO-CCSD(T), (RO)-DLPNO pert. Triples
   Tobias Risthaus        : Range-separated hybrids, TD-DFT gradient, RPA, STAB
   Michael Roemelt        : Original ROCIS implementation
   Masaaki Saitow         : Open-shell DLPNO-CCSD energy and density
   Barbara Sandhoefer     : DKH picture change effects
   Avijit Sen             : IP-ROCIS
   Kantharuban Sivalingam : CASSCF convergence, NEVPT2, FIC-MRCI
   Bernardo de Souza      : ESD, SOC TD-DFT
   Georgi Stoychev        : AutoAux, RI-MP2 NMR, DLPNO-MP2 response
   Willem Van den Heuvel  : Paramagnetic NMR
   Boris Wezisla          : Elementary symmetry handling
   Frank Wennmohs         : Technical directorship


 We gratefully acknowledge several colleagues who have allowed us to
 interface, adapt or use parts of their codes:
   Stefan Grimme, W. Hujo, H. Kruse, P. Pracht,  : VdW corrections, initial TS optimization,
                  C. Bannwarth, S. Ehlert          DFT functionals, gCP, sTDA/sTD-DF
   Ed Valeev, F. Pavosevic, A. Kumar             : LibInt (2-el integral package), F12 methods
   Garnet Chan, S. Sharma, J. Yang, R. Olivares  : DMRG
   Ulf Ekstrom                                   : XCFun DFT Library
   Mihaly Kallay                                 : mrcc  (arbitrary order and MRCC methods)
   Jiri Pittner, Ondrej Demel                    : Mk-CCSD
   Frank Weinhold                                : gennbo (NPA and NBO analysis)
   Christopher J. Cramer and Donald G. Truhlar   : smd solvation model
   Lars Goerigk                                  : TD-DFT with DH, B97 family of functionals
   V. Asgeirsson, H. Jonsson                     : NEB implementation
   FAccTs GmbH                                   : IRC, NEB, NEB-TS, DLPNO-Multilevel, CI-OPT
                                                   MM, QMMM, 2- and 3-layer-ONIOM, Crystal-QMMM,
                                                   LR-CPCM, SF, NACMEs, symmetry and pop. for TD-DFT,
                                                   nearIR, NL-DFT gradient (VV10), updates on ESD,
                                                   ML-optimized integration grids
   S Lehtola, MJT Oliveira, MAL Marques          : LibXC Library
   Liviu Ungur et al                             : ANISO software


 Your calculation uses the libint2 library for the computation of 2-el integrals
 For citations please refer to: http://libint.valeyev.net

 Your ORCA version has been built with support for libXC version: 5.1.0
 For citations please refer to: https://tddft.org/programs/libxc/

 This ORCA versions uses:
   CBLAS   interface :  Fast vector & matrix operations
   LAPACKE interface :  Fast linear algebra routines
   SCALAPACK package :  Parallel linear algebra routines
   Shared memory     :  Shared parallel matrices
   BLAS/LAPACK       :  OpenBLAS 0.3.15  USE64BITINT DYNAMIC_ARCH NO_AFFINITY SkylakeX SINGLE_THREADED
        Core in use  :  SkylakeX
   Copyright (c) 2011-2014, The OpenBLAS Project




***************************************
The coordinates will be read from file: xtbopt.xyz
***************************************


Your calculation utilizes the geometrical counterpoise correction gCP
Please cite in your paper:
H.Kruse, S. Grimme J.Chem.Phys., 136, (2012), 154101 
   

Your calculation utilizes the atom-pairwise dispersion correction
based on tight binding partial charges (D4)
Cite in your paper:
E.Caldeweyher, C.Bannwarth, S.Grimme, J.Chem.Phys., (2017), 147, 034112.
E.Caldeweyher, S.Ehlert, A.Hansen, H.Neugebauer, S.Grimme, J.Chem.Phys., (2018), in progress.
   

Your calculation utilizes the SMD solvation module
Please cite in your paper:
A.V. Marenich, C.J. Cramer, D.G. Truhlar J. Phys. Chem. B, 113, (2009), 6378 

================================================================================

----- Orbital basis set information -----
Your calculation utilizes the basis: def2-mTZVPP
   Stefan Grimme, Andreas Hansen, Sebastian Ehlert, and Jan-Michael Mewes 
   J. Chem. Phys. 154, 000000 (2021). DOI: 10.1063/5.0040021

----- AuxJ basis set information -----
Your calculation utilizes the auxiliary basis: def2/J
   F. Weigend, Phys. Chem. Chem. Phys. 8, 1057 (2006).

================================================================================
                                        WARNINGS
                       Please study these warnings very carefully!
================================================================================

Using LibXC functional ID 497 : Re-regularized SCAN exchange by Furness et al
[ 1]  J. W. Furness, A. D. Kaplan, J. Ning, J. P. Perdew, and J. Sun, J. Phys. Chem. Lett. 11, 8208 (2020)
[ 2]  J. W. Furness, A. D. Kaplan, J. Ning, J. P. Perdew, and J. Sun, J. Phys. Chem. Lett. 11, 9248 (2020)
Using LibXC functional ID 498 : Re-regularized SCAN correlation by Furness et al
[ 1]  J. W. Furness, A. D. Kaplan, J. Ning, J. P. Perdew, and J. Sun, J. Phys. Chem. Lett. 11, 8208 (2020)
[ 2]  J. W. Furness, A. D. Kaplan, J. Ning, J. P. Perdew, and J. Sun, J. Phys. Chem. Lett. 11, 9248 (2020)
Using LibXC functional ID 497 : Re-regularized SCAN exchange by Furness et al
[ 1]  J. W. Furness, A. D. Kaplan, J. Ning, J. P. Perdew, and J. Sun, J. Phys. Chem. Lett. 11, 8208 (2020)
[ 2]  J. W. Furness, A. D. Kaplan, J. Ning, J. P. Perdew, and J. Sun, J. Phys. Chem. Lett. 11, 9248 (2020)
Using LibXC functional ID 498 : Re-regularized SCAN correlation by Furness et al
[ 1]  J. W. Furness, A. D. Kaplan, J. Ning, J. P. Perdew, and J. Sun, J. Phys. Chem. Lett. 11, 8208 (2020)
[ 2]  J. W. Furness, A. D. Kaplan, J. Ning, J. P. Perdew, and J. Sun, J. Phys. Chem. Lett. 11, 9248 (2020)

INFO   : the flag for use of the SHARK integral package has been found!

================================================================================
                                       INPUT FILE
================================================================================
NAME = ORCA.in
|  1> ! r2SCAN-3c ENERGY TightSCF defgrid3 def2/J
|  2> %maxcore 8000
|  3> %PAL NPROCS 10 END
|  4> %CPCM SMD TRUE
|  5>       SMDSOLVENT "MeCN"
|  6> END
|  7> *xyzfile 12 1  xtbopt.xyz
|  8> 
|  9>                          ****END OF INPUT****
================================================================================

                       ****************************
                       * Single Point Calculation *
                       ****************************

---------------------------------
CARTESIAN COORDINATES (ANGSTROEM)
---------------------------------
  N      6.110229    7.516858    7.775930
  C      6.110978    6.640171    8.988732
  C      4.961017    5.625160    8.872332
  C      7.472852    7.817821    7.235617
  C      7.885479    6.695770    6.267634
  C      5.213309    8.710187    7.880976
  C      4.490069    8.911742    6.538383
  N      5.072656    4.942982    7.601518
  N      6.839290    6.524948    5.283163
  N      3.850616    7.669155    6.164107
  Mg     4.756953    5.718043    5.518370
  H      6.018409    7.243091    9.893491
  H      7.063448    6.106623    9.036496
  H      5.019550    4.937719    9.724009
  H      3.993957    6.136664    8.900677
  H      8.190207    7.922429    8.051251
  H      7.435808    8.767569    6.696446
  H      8.846645    6.965838    5.815446
  H      8.004544    5.749775    6.805009
  H      5.788649    9.595048    8.158015
  H      4.476571    8.528694    8.667303
  H      3.773997    9.733650    6.651986
  H      5.205396    9.176068    5.753416
  C      5.385067    3.714404    7.582833
  C      3.167459   -6.164138    0.772826
  C      7.855434    3.856753   -4.364188
  C      5.350436   -0.969077    1.301183
  C      5.340033   -0.315058    2.530860
  C      5.794933    0.998198    2.634552
  C      6.262706    1.656416    1.499767
  C      6.276840    1.009373    0.265417
  C      5.819363   -0.302674    0.170414
  C      4.857083   -2.352020    1.182695
  C      5.503595   -3.286121    0.370943
  C      4.956199   -4.550927    0.239960
  C      3.782915   -4.861736    0.929327
  N      3.181241   -3.977719    1.737756
  C      3.700648   -2.765888    1.857205
  C      5.764607    1.682128    3.938950
  C      6.113485    1.016012    5.115323
  C      6.001268    1.685851    6.321656
  C      5.553730    3.008036    6.329002
  N      5.252858    3.660413    5.197224
  C      5.353230    3.017501    4.044265
  C      6.762357    1.722432   -0.928618
  C      6.096544    1.611135   -2.156483
  C      7.880970    2.555862   -0.870415
  C      8.252841    3.256319   -2.005094
  C      7.510314    3.101253   -3.176877
  N      6.458051    2.273505   -3.244348
  H      6.422169   -3.041276   -0.140153
  H      5.430633   -5.290802   -0.386304
  H      3.152673   -2.080924    2.490899
  H      6.478719    0.000588    5.094632
  H      6.258880    1.193934    7.247106
  H      5.059902    3.578629    3.166547
  H      5.216023    0.989738   -2.255575
  H      8.460434    2.650340    0.035152
  H      9.108908    3.913355   -1.987020
  H      5.540128    3.143325    8.499716
  N      1.345829   -7.817418    3.769125
  C      2.237524   -7.848107    4.970653
  C      3.290309   -6.733954    4.841179
  C     -0.103488   -8.032361    4.073869
  C     -0.747195   -6.679560    4.423244
  C      1.853192   -8.611796    2.606682
  C      1.599098   -7.820544    1.312039
  N      2.612407   -5.481127    4.588689
  N     -0.454331   -5.738808    3.363851
  N      2.156652   -6.494236    1.463231
  Mg     1.495294   -4.792750    2.772367
  H      2.707484   -8.827943    5.069879
  H      1.631545   -7.674238    5.863189
  H      3.883577   -6.710894    5.762468
  H      3.958900   -6.934595    3.998217
  H     -0.218486   -8.748638    4.889051
  H     -0.590931   -8.449356    3.189240
  H     -1.823520   -6.834727    4.560376
  H     -0.328498   -6.284764    5.354147
  H      1.370704   -9.590086    2.575343
  H      2.927198   -8.770676    2.730927
  H      0.524839   -7.719189    1.128751
  H      2.047273   -8.370928    0.476830
  N      7.375904    2.278507   -7.873626
  C      8.309872    3.422837   -7.633600
  C      7.660071    4.397296   -6.636433
  C      8.047040    0.942920   -7.946019
  C      8.175961    0.371005   -6.523883
  C      6.372579    2.521785   -8.957017
  C      5.011155    1.960219   -8.512651
  N      7.254402    3.655988   -5.462236
  N      6.872474    0.389098   -5.896648
  N      4.684690    2.507258   -7.213731
  Mg     5.626074    2.127107   -5.211078
  H      8.551282    3.920112   -8.574428
  H      9.239811    3.035468   -7.210014
  H      8.383379    5.187431   -6.404486
  H      6.768141    4.856343   -7.074060
  H      9.022163    1.033406   -8.427298
  H      7.433521    0.272913   -8.553396
  H      8.593031   -0.640131   -6.594705
  H      8.851443    0.987299   -5.922379
  H      6.704027    2.065510   -9.891207
  H      6.286140    3.598689   -9.121398
  H      5.057572    0.870636   -8.421073
  H      4.266453    2.216962   -9.274762
  N     -7.538641    5.197868   -1.306694
  C     -7.420353    5.862901   -2.642090
  C     -5.969286    6.333815   -2.839548
  C     -8.382645    3.962015   -1.308583
  C     -7.503637    2.757216   -1.685861
  C     -7.824979    6.136513   -0.176817
  C     -6.982752    5.723137    1.042344
  N     -5.083113    5.213177   -2.612294
  N     -6.348942    2.734334   -0.814619
  N     -5.597718    5.623037    0.636631
  Mg    -4.592545    4.130948   -0.709884
  H     -8.121191    6.696130   -2.715000
  H     -7.677092    5.139416   -3.419778
  H     -5.874453    6.744659   -3.851233
  H     -5.718462    7.117493   -2.117823
  H     -9.219276    4.074276   -2.000115
  H     -8.792603    3.813885   -0.306439
  H     -8.109924    1.847953   -1.602415
  H     -7.149712    2.848913   -2.717419
  H     -8.890615    6.134802    0.058042
  H     -7.550188    7.149124   -0.482226
  H     -7.300119    4.743752    1.413634
  H     -7.134870    6.465108    1.834659
  C      7.063998    6.846099    4.077455
  C     -4.760346    6.466735    1.077529
  C      3.723558    3.327639   -7.110632
  C      0.680036    6.072391   -0.431258
  C      1.675092    6.331002    0.509743
  C      3.016749    6.149997    0.182745
  C      3.361750    5.708065   -1.093288
  C      2.373670    5.448944   -2.040043
  C      1.033492    5.632489   -1.704592
  C     -0.735991    6.252877   -0.067374
  C     -1.154025    7.337241    0.706299
  C     -2.485533    7.420947    1.076247
  C     -3.373084    6.426651    0.661332
  N     -2.980052    5.403465   -0.110481
  C     -1.705999    5.321142   -0.460557
  C      4.073122    6.409388    1.176116
  C      5.269481    7.032180    0.815055
  C      6.257633    7.188822    1.771826
  C      6.027893    6.732510    3.070859
  N      4.865726    6.167787    3.428152
  C      3.923907    6.010269    2.510989
  C      2.732633    4.972598   -3.387003
  C      3.733847    4.009256   -3.568932
  C      2.069043    5.440990   -4.522639
  C      2.399697    4.909112   -5.757280
  C      3.392646    3.931139   -5.835578
  N      4.055936    3.506819   -4.750694
  H     -0.461991    8.110092    1.004298
  H     -2.836181    8.245987    1.677183
  H     -1.436694    4.455352   -1.051336
  H      5.426480    7.401245   -0.186865
  H      7.195030    7.660201    1.518915
  H      3.022578    5.511872    2.843683
  H      4.272384    3.602305   -2.722970
  H      1.318744    6.213707   -4.452201
  H      1.898040    5.246864   -6.651200
  H      8.036033    7.218520    3.749854
  H     -5.045154    7.249669    1.782368
  H      3.111461    3.611544   -7.968274
  C      2.584704    7.598648    6.165253
  C     -6.235608    1.804777    0.040025
  C      2.615536   -4.582959    5.483501
  C     -1.710102    1.641449    3.434744
  C     -1.121719    2.818027    3.892254
  C      0.043651    2.772288    4.655425
  C      0.619624    1.541322    4.960154
  C      0.036250    0.359251    4.507539
  C     -1.127597    0.413766    3.744478
  C     -2.934545    1.684241    2.616857
  C     -3.963376    0.759231    2.804358
  C     -5.062050    0.801232    1.963114
  C     -5.117294    1.771093    0.960717
  N     -4.147315    2.682849    0.802792
  C     -3.092802    2.637539    1.602066
  C      0.663585    4.025402    5.119474
  C     -0.110970    5.088144    5.588394
  C      0.518776    6.268484    5.944758
  C      1.907667    6.359901    5.838726
  N      2.655813    5.328192    5.422764
  C      2.052728    4.202807    5.072954
  C      0.662186   -0.935162    4.828297
  C      0.761652   -1.946962    3.864082
  C      1.204302   -1.185727    6.090294
  C      1.840163   -2.394430    6.316996
  C      1.913738   -3.330968    5.284509
  N      1.363167   -3.105804    4.083186
  H     -3.918760    0.027864    3.596830
  H     -5.869254    0.094473    2.080529
  H     -2.321418    3.370496    1.404080
  H     -1.181880    4.996885    5.687231
  H     -0.055377    7.108924    6.303760
  H      2.699607    3.416924    4.705351
  H      0.371192   -1.800979    2.865324
  H      1.123166   -0.461679    6.886561
  H      2.273649   -2.612904    7.280938
  H      1.958208    8.458018    6.410033
  H      3.141773   -4.712323    6.430755
  C     -4.443613    4.720320   -3.589809
  C      6.287833   -0.708632   -5.650627
  C     -1.395707   -5.330971    2.618923
  C      1.208716   -0.689082   -3.153705
  C      0.291594    0.325423   -3.417519
  C     -0.920574    0.375080   -2.731469
  C     -1.212647   -0.596990   -1.777778
  C     -0.300941   -1.616178   -1.508607
  C      0.908261   -1.658475   -2.198417
  C      2.498365   -0.737810   -3.864003
  C      3.042020   -1.948176   -4.298464
  C      4.289322   -1.943740   -4.899133
  C      4.962792   -0.732354   -5.064817
  N      4.426563    0.434644   -4.680554
  C      3.237563    0.429382   -4.098344
  C     -1.876073    1.460929   -3.011102
  C     -2.109295    1.904627   -4.314186
  C     -2.965235    2.974450   -4.512999
  C     -3.580066    3.570667   -3.410712
  N     -3.385934    3.121916   -2.162506
  C     -2.560247    2.104790   -1.971519
  C     -0.618405   -2.631201   -0.489317
  C      0.353952   -3.070865    0.418837
  C     -1.903011   -3.165833   -0.373679
  C     -2.163556   -4.066112    0.645255
  C     -1.135741   -4.423861    1.519344
  N      0.106987   -3.938818    1.387539
  H      2.501974   -2.875673   -4.184414
  H      4.736772   -2.865135   -5.239175
  H     -1.645795    1.420756   -5.160409
  H     -3.158670    3.343461   -5.508597
  H     -2.408271    1.809990   -0.941275
  H      1.362603   -2.679896    0.384430
  H     -2.683885   -2.898643   -1.069234
  H     -3.149006   -4.490249    0.762571
  H     -4.515404    5.135906   -4.596304
  H     -2.430265   -5.642899    2.771527
  H      8.650312    4.598135   -4.267469
  H      4.991999   -0.831575    3.410913
  H      6.629628    2.667237    1.578027
  H      5.841254   -0.811664   -0.779821
  H      1.404439    6.686832    1.490894
  H      4.400614    5.581232   -1.352582
  H      0.267512    5.445958   -2.440055
  H     -1.577320    3.769089    3.667610
  H      1.513245    1.500643    5.562120
  H     -1.589711   -0.498838    3.403600
  H      0.513025    1.068553   -4.166734
  H     -2.155271   -0.570688   -1.255061
  H      1.610442   -2.453068   -2.003377
  H      3.612689   -6.839405    0.040221
  H      6.752104   -1.672046   -5.867846
  H      2.869925    1.393406   -3.771675
  H     -6.967634    0.999293    0.118392
  H      5.669023    6.931903    7.040049
  H      1.393025   -6.832659    3.443094
  H     -6.580155    4.849812   -1.110542
  H      6.806478    2.229533   -7.006595

----------------------------
CARTESIAN COORDINATES (A.U.)
----------------------------
  NO LB      ZA    FRAG     MASS         X           Y           Z
   0 N     7.0000    0    14.007   11.546660   14.204803   14.694379
   1 C     6.0000    0    12.011   11.548075   12.548105   16.986242
   2 C     6.0000    0    12.011    9.374964   10.630011   16.766278
   3 C     6.0000    0    12.011   14.121643   14.773542   13.673335
   4 C     6.0000    0    12.011   14.901395   12.653171   11.844112
   5 C     6.0000    0    12.011    9.851727   16.459868   14.892886
   6 C     6.0000    0    12.011    8.485000   16.840752   12.355753
   7 N     7.0000    0    14.007    9.585930    9.340882   14.364788
   8 N     7.0000    0    14.007   12.924385   12.330365    9.983732
   9 N     7.0000    0    14.007    7.276610   14.492603   11.648473
  10 Mg   12.0000    0    24.305    8.989338   10.805536   10.428207
  11 H     1.0000    0     1.008   11.373144   13.687458   18.695989
  12 H     1.0000    0     1.008   13.347982   11.539846   17.076502
  13 H     1.0000    0     1.008    9.485575    9.330937   18.375714
  14 H     1.0000    0     1.008    7.547486   11.596613   16.819843
  15 H     1.0000    0     1.008   15.477249   14.971222   15.214660
  16 H     1.0000    0     1.008   14.051641   16.568304   12.654450
  17 H     1.0000    0     1.008   16.717736   13.163527   10.989600
  18 H     1.0000    0     1.008   15.126395   10.865499   12.859603
  19 H     1.0000    0     1.008   10.938961   18.132013   15.416414
  20 H     1.0000    0     1.008    8.459494   16.116895   16.378829
  21 H     1.0000    0     1.008    7.131820   18.393934   12.570431
  22 H     1.0000    0     1.008    9.836773   17.340255   10.872381
  23 C     6.0000    0    12.011   10.176301    7.019206   14.329477
  24 C     6.0000    0    12.011    5.985630  -11.648532    1.460430
  25 C     6.0000    0    12.011   14.844619    7.288207   -8.247120
  26 C     6.0000    0    12.011   10.110858   -1.831291    2.458880
  27 C     6.0000    0    12.011   10.091199   -0.595373    4.782632
  28 C     6.0000    0    12.011   10.950837    1.886322    4.978581
  29 C     6.0000    0    12.011   11.834800    3.130173    2.834148
  30 C     6.0000    0    12.011   11.861509    1.907438    0.501566
  31 C     6.0000    0    12.011   10.997002   -0.571972    0.322036
  32 C     6.0000    0    12.011    9.178557   -4.444673    2.234970
  33 C     6.0000    0    12.011   10.400288   -6.209869    0.700981
  34 C     6.0000    0    12.011    9.365859   -8.600005    0.453459
  35 C     6.0000    0    12.011    7.148673   -9.187350    1.756173
  36 N     7.0000    0    14.007    6.011675   -7.516799    3.283884
  37 C     6.0000    0    12.011    6.993212   -5.226770    3.509608
  38 C     6.0000    0    12.011   10.893529    3.178761    7.443536
  39 C     6.0000    0    12.011   11.552813    1.919984    9.666560
  40 C     6.0000    0    12.011   11.340753    3.185796   11.946198
  41 C     6.0000    0    12.011   10.495029    5.684364   11.960081
  42 N     7.0000    0    14.007    9.926464    6.917178    9.821330
  43 C     6.0000    0    12.011   10.116139    5.702251    7.642554
  44 C     6.0000    0    12.011   12.779002    3.254924   -1.754833
  45 C     6.0000    0    12.011   11.520799    3.044604   -4.075161
  46 C     6.0000    0    12.011   14.892874    4.829879   -1.644847
  47 C     6.0000    0    12.011   15.595610    6.153550   -3.789078
  48 C     6.0000    0    12.011   14.192436    5.860519   -6.003427
  49 N     7.0000    0    14.007   12.203947    4.296302   -6.130929
  50 H     1.0000    0     1.008   12.136140   -5.747179   -0.264852
  51 H     1.0000    0     1.008   10.262409   -9.998166   -0.730010
  52 H     1.0000    0     1.008    5.957689   -3.932377    4.707116
  53 H     1.0000    0     1.008   12.243006    0.001112    9.627460
  54 H     1.0000    0     1.008   11.827569    2.256208   13.695045
  55 H     1.0000    0     1.008    9.561828    6.762628    5.983906
  56 H     1.0000    0     1.008    9.856855    1.870334   -4.262420
  57 H     1.0000    0     1.008   15.987904    5.008417    0.066428
  58 H     1.0000    0     1.008   17.213342    7.395169   -3.754924
  59 H     1.0000    0     1.008   10.469325    5.940023   16.062136
  60 N     7.0000    0    14.007    2.543249  -14.772779    7.122614
  61 C     6.0000    0    12.011    4.228307  -14.830772    9.393174
  62 C     6.0000    0    12.011    6.217784  -12.725329    9.148502
  63 C     6.0000    0    12.011   -0.195563  -15.178962    7.698497
  64 C     6.0000    0    12.011   -1.411993  -12.622539    8.358720
  65 C     6.0000    0    12.011    3.502026  -16.273935    4.925915
  66 C     6.0000    0    12.011    3.021858  -14.778686    2.479395
  67 N     7.0000    0    14.007    4.936733  -10.357828    8.671366
  68 N     7.0000    0    14.007   -0.858561  -10.844775    6.356757
  69 N     7.0000    0    14.007    4.075482  -12.272328    2.765105
  70 Mg   12.0000    0    24.305    2.825697   -9.056985    5.239014
  71 H     1.0000    0     1.008    5.116403  -16.682394    9.580682
  72 H     1.0000    0     1.008    3.083174  -14.502208   11.079821
  73 H     1.0000    0     1.008    7.338897  -12.681751   10.889486
  74 H     1.0000    0     1.008    7.481237  -13.104486    7.555535
  75 H     1.0000    0     1.008   -0.412879  -16.532529    9.238967
  76 H     1.0000    0     1.008   -1.116698  -15.966968    6.026790
  77 H     1.0000    0     1.008   -3.445953  -12.915762    8.617862
  78 H     1.0000    0     1.008   -0.620772  -11.876482   10.117871
  79 H     1.0000    0     1.008    2.590256  -18.122637    4.866692
  80 H     1.0000    0     1.008    5.531603  -16.574175    5.160704
  81 H     1.0000    0     1.008    0.991803  -14.587153    2.133031
  82 H     1.0000    0     1.008    3.868784  -15.818762    0.901078
  83 N     7.0000    0    14.007   13.938439    4.305753  -14.878997
  84 C     6.0000    0    12.011   15.703383    6.468225  -14.425413
  85 C     6.0000    0    12.011   14.475436    8.309685  -12.541041
  86 C     6.0000    0    12.011   15.206703    1.781860  -15.015800
  87 C     6.0000    0    12.011   15.450327    0.701098  -12.328353
  88 C     6.0000    0    12.011   12.042430    4.765482  -16.926310
  89 C     6.0000    0    12.011    9.469710    3.704277  -16.086579
  90 N     7.0000    0    14.007   13.708833    6.908816  -10.322129
  91 N     7.0000    0    14.007   12.987093    0.735289  -11.143050
  92 N     7.0000    0    14.007    8.852782    4.738032  -13.631975
  93 Mg   12.0000    0    24.305   10.631738    4.019650   -9.847509
  94 H     1.0000    0     1.008   16.159581    7.407938  -16.203322
  95 H     1.0000    0     1.008   17.460713    5.736203  -13.624951
  96 H     1.0000    0     1.008   15.842290    9.802824  -12.102724
  97 H     1.0000    0     1.008   12.789934    9.177159  -13.368036
  98 H     1.0000    0     1.008   17.049417    1.952853  -15.925286
  99 H     1.0000    0     1.008   14.047318    0.515732  -16.163577
 100 H     1.0000    0     1.008   16.238474   -1.209672  -12.462186
 101 H     1.0000    0     1.008   16.726803    1.865725  -11.191675
 102 H     1.0000    0     1.008   12.668774    3.903249  -18.691672
 103 H     1.0000    0     1.008   11.879084    6.800537  -17.236945
 104 H     1.0000    0     1.008    9.557427    1.645264  -15.913522
 105 H     1.0000    0     1.008    8.062427    4.189451  -17.526761
 106 N     7.0000    0    14.007  -14.245968    9.822547   -2.469293
 107 C     6.0000    0    12.011  -14.022434   11.079278   -4.992826
 108 C     6.0000    0    12.011  -11.280315   11.969176   -5.365968
 109 C     6.0000    0    12.011  -15.840903    7.487123   -2.472864
 110 C     6.0000    0    12.011  -14.179819    5.210383   -3.185816
 111 C     6.0000    0    12.011  -14.787068   11.596328   -0.334136
 112 C     6.0000    0    12.011  -13.195490   10.815162    1.969744
 113 N     7.0000    0    14.007   -9.605691    9.851476   -4.936520
 114 N     7.0000    0    14.007  -11.997762    5.167142   -1.539407
 115 N     7.0000    0    14.007  -10.578154   10.625999    1.203059
 116 Mg   12.0000    0    24.305   -8.678652    7.806360   -1.341487
 117 H     1.0000    0     1.008  -15.346828   12.653851   -5.130607
 118 H     1.0000    0     1.008  -14.507602    9.712088   -6.462445
 119 H     1.0000    0     1.008  -11.101108   12.745558   -7.277775
 120 H     1.0000    0     1.008  -10.806328   13.450112   -4.002105
 121 H     1.0000    0     1.008  -17.421906    7.699266   -3.779669
 122 H     1.0000    0     1.008  -16.615612    7.207198   -0.579087
 123 H     1.0000    0     1.008  -15.325536    3.492125   -3.028125
 124 H     1.0000    0     1.008  -13.510998    5.383665   -5.135177
 125 H     1.0000    0     1.008  -16.800827   11.593096    0.109684
 126 H     1.0000    0     1.008  -14.267788   13.509886   -0.911275
 127 H     1.0000    0     1.008  -13.795226    8.964393    2.671381
 128 H     1.0000    0     1.008  -13.482950   12.217284    3.467002
 129 C     6.0000    0    12.011   13.349021   12.937253    7.705274
 130 C     6.0000    0    12.011   -8.995751   12.220358    2.036235
 131 C     6.0000    0    12.011    7.036504    6.288326  -13.437147
 132 C     6.0000    0    12.011    1.285081   11.475157   -0.814959
 133 C     6.0000    0    12.011    3.165465   11.963859    0.963275
 134 C     6.0000    0    12.011    5.700829   11.621809    0.345337
 135 C     6.0000    0    12.011    6.352786   10.786679   -2.066014
 136 C     6.0000    0    12.011    4.485587   10.297011   -3.855123
 137 C     6.0000    0    12.011    1.953017   10.643861   -3.221212
 138 C     6.0000    0    12.011   -1.390822   11.816226   -0.127318
 139 C     6.0000    0    12.011   -2.180790   13.865376    1.334712
 140 C     6.0000    0    12.011   -4.696977   14.023558    2.033812
 141 C     6.0000    0    12.011   -6.374206   12.144610    1.249736
 142 N     7.0000    0    14.007   -5.631482   10.211069   -0.208779
 143 C     6.0000    0    12.011   -3.223871   10.055501   -0.870327
 144 C     6.0000    0    12.011    7.697085   12.111988    2.222537
 145 C     6.0000    0    12.011    9.957877   13.288894    1.540231
 146 C     6.0000    0    12.011   11.825213   13.584905    3.348266
 147 C     6.0000    0    12.011   11.391066   12.722600    5.803083
 148 N     7.0000    0    14.007    9.194890   11.655428    6.478268
 149 C     6.0000    0    12.011    7.415109   11.357763    4.745081
 150 C     6.0000    0    12.011    5.163928    9.396848   -6.400508
 151 C     6.0000    0    12.011    7.055948    7.576396   -6.744305
 152 C     6.0000    0    12.011    3.909925   10.281980   -8.546549
 153 C     6.0000    0    12.011    4.534770    9.276878  -10.879683
 154 C     6.0000    0    12.011    6.411172    7.428777  -11.027645
 155 N     7.0000    0    14.007    7.664608    6.626927   -8.977511
 156 H     1.0000    0     1.008   -0.873036   15.325853    1.897848
 157 H     1.0000    0     1.008   -5.359604   15.582657    3.169417
 158 H     1.0000    0     1.008   -2.714958    8.419396   -1.986737
 159 H     1.0000    0     1.008   10.254561   13.986326   -0.353123
 160 H     1.0000    0     1.008   13.596636   14.475683    2.870333
 161 H     1.0000    0     1.008    5.711845   10.415929    5.373783
 162 H     1.0000    0     1.008    8.073636    6.807370   -5.145668
 163 H     1.0000    0     1.008    2.492065   11.742204   -8.413440
 164 H     1.0000    0     1.008    3.586777    9.915137  -12.568946
 165 H     1.0000    0     1.008   15.185901   13.641025    7.086198
 166 H     1.0000    0     1.008   -9.533959   13.699890    3.368188
 167 H     1.0000    0     1.008    5.879809    6.824829  -15.057856
 168 C     6.0000    0    12.011    4.884382   14.359363   11.650640
 169 C     6.0000    0    12.011  -11.783592    3.410534    0.075636
 170 C     6.0000    0    12.011    4.942647   -8.660538   10.362315
 171 C     6.0000    0    12.011   -3.231625    3.101889    6.490726
 172 C     6.0000    0    12.011   -2.119742    5.325299    7.355295
 173 C     6.0000    0    12.011    0.082488    5.238864    8.797479
 174 C     6.0000    0    12.011    1.170920    2.912676    9.373333
 175 C     6.0000    0    12.011    0.068502    0.678886    8.518014
 176 C     6.0000    0    12.011   -2.130850    0.781905    7.076037
 177 C     6.0000    0    12.011   -5.545486    3.182755    4.945143
 178 C     6.0000    0    12.011   -7.489694    1.434738    5.299468
 179 C     6.0000    0    12.011   -9.565889    1.514108    3.709747
 180 C     6.0000    0    12.011   -9.670284    3.346880    1.815491
 181 N     7.0000    0    14.007   -7.837289    5.069849    1.517057
 182 C     6.0000    0    12.011   -5.844548    4.984227    3.027466
 183 C     6.0000    0    12.011    1.253993    7.606907    9.674405
 184 C     6.0000    0    12.011   -0.209702    9.615198   10.560534
 185 C     6.0000    0    12.011    0.980345   11.845717   11.233964
 186 C     6.0000    0    12.011    3.604968   12.018471   11.033592
 187 N     7.0000    0    14.007    5.018760   10.068823   10.247538
 188 C     6.0000    0    12.011    3.879094    7.942155    9.586493
 189 C     6.0000    0    12.011    1.251350   -1.767200    9.124159
 190 C     6.0000    0    12.011    1.439313   -3.679224    7.302057
 191 C     6.0000    0    12.011    2.275801   -2.240699   11.508987
 192 C     6.0000    0    12.011    3.477405   -4.524818   11.937392
 193 C     6.0000    0    12.011    3.616441   -6.294617    9.986274
 194 N     7.0000    0    14.007    2.576012   -5.869118    7.716104
 195 H     1.0000    0     1.008   -7.405383    0.052655    6.797024
 196 H     1.0000    0     1.008  -11.091282    0.178528    3.931630
 197 H     1.0000    0     1.008   -4.386844    6.369315    2.653328
 198 H     1.0000    0     1.008   -2.233430    9.442743   10.747310
 199 H     1.0000    0     1.008   -0.104647   13.433919   11.912379
 200 H     1.0000    0     1.008    5.101518    6.457050    8.891825
 201 H     1.0000    0     1.008    0.701451   -3.403358    5.414677
 202 H     1.0000    0     1.008    2.122476   -0.872446   13.013713
 203 H     1.0000    0     1.008    4.296573   -4.937673   13.758979
 204 H     1.0000    0     1.008    3.700476   15.983337   12.113206
 205 H     1.0000    0     1.008    5.937091   -8.905000   12.152365
 206 C     6.0000    0    12.011   -8.397212    8.920113   -6.783756
 207 C     6.0000    0    12.011   11.882282   -1.339120  -10.678137
 208 C     6.0000    0    12.011   -2.637504  -10.074075    4.949047
 209 C     6.0000    0    12.011    2.284142   -1.302176   -5.959639
 210 C     6.0000    0    12.011    0.551033    0.614961   -6.458176
 211 C     6.0000    0    12.011   -1.739632    0.708799   -5.161728
 212 C     6.0000    0    12.011   -2.291571   -1.128148   -3.359514
 213 C     6.0000    0    12.011   -0.568697   -3.054133   -2.850854
 214 C     6.0000    0    12.011    1.716365   -3.134063   -4.154406
 215 C     6.0000    0    12.011    4.721226   -1.394259   -7.301908
 216 C     6.0000    0    12.011    5.748585   -3.681519   -8.122920
 217 C     6.0000    0    12.011    8.105645   -3.673136   -9.258020
 218 C     6.0000    0    12.011    9.378318   -1.383949   -9.571118
 219 N     7.0000    0    14.007    8.364992    0.821359   -8.844965
 220 C     6.0000    0    12.011    6.118107    0.811415   -7.744748
 221 C     6.0000    0    12.011   -3.545265    2.760755   -5.690158
 222 C     6.0000    0    12.011   -3.985990    3.599224   -8.152630
 223 C     6.0000    0    12.011   -5.603482    5.620896   -8.528332
 224 C     6.0000    0    12.011   -6.765345    6.747584   -6.445311
 225 N     7.0000    0    14.007   -6.398487    5.899567   -4.086544
 226 C     6.0000    0    12.011   -4.838166    3.977476   -3.725631
 227 C     6.0000    0    12.011   -1.168617   -4.972249   -0.924676
 228 C     6.0000    0    12.011    0.668872   -5.803094    0.791488
 229 C     6.0000    0    12.011   -3.596169   -5.982558   -0.706151
 230 C     6.0000    0    12.011   -4.088528   -7.683838    1.219355
 231 C     6.0000    0    12.011   -2.146239   -8.359886    2.871145
 232 N     7.0000    0    14.007    0.202177   -7.443287    2.622068
 233 H     1.0000    0     1.008    4.728046   -5.434234   -7.907397
 234 H     1.0000    0     1.008    8.951201   -5.414321   -9.900606
 235 H     1.0000    0     1.008   -3.110102    2.684839   -9.751759
 236 H     1.0000    0     1.008   -5.969022    6.318225  -10.409740
 237 H     1.0000    0     1.008   -4.550972    3.420385   -1.778753
 238 H     1.0000    0     1.008    2.574946   -5.064270    0.726467
 239 H     1.0000    0     1.008   -5.071808   -5.477642   -2.020560
 240 H     1.0000    0     1.008   -5.950759   -8.485341    1.441051
 241 H     1.0000    0     1.008   -8.532877    9.705457   -8.685756
 242 H     1.0000    0     1.008   -4.592535  -10.663534    5.237428
 243 H     1.0000    0     1.008   16.346721    8.689216   -8.064347
 244 H     1.0000    0     1.008    9.433511   -1.571450    6.445691
 245 H     1.0000    0     1.008   12.528182    5.040348    2.982039
 246 H     1.0000    0     1.008   11.038370   -1.533822   -1.473649
 247 H     1.0000    0     1.008    2.654004   12.636282    2.817381
 248 H     1.0000    0     1.008    8.315956   10.547000   -2.556010
 249 H     1.0000    0     1.008    0.505525   10.291369   -4.611037
 250 H     1.0000    0     1.008   -2.980703    7.122546    6.930778
 251 H     1.0000    0     1.008    2.859619    2.835804   10.510883
 252 H     1.0000    0     1.008   -3.004118   -0.942667    6.431873
 253 H     1.0000    0     1.008    0.969478    2.019272   -7.873985
 254 H     1.0000    0     1.008   -4.072871   -1.078445   -2.371721
 255 H     1.0000    0     1.008    3.043295   -4.635627   -3.785835
 256 H     1.0000    0     1.008    6.826993  -12.924602    0.076007
 257 H     1.0000    0     1.008   12.759628   -3.159709  -11.088622
 258 H     1.0000    0     1.008    5.423373    2.633155   -7.127433
 259 H     1.0000    0     1.008  -13.166919    1.888390    0.223728
 260 H     1.0000    0     1.008   10.712902   13.099398   13.303765
 261 H     1.0000    0     1.008    2.632435  -12.911855    6.506505
 262 H     1.0000    0     1.008  -12.434691    9.164816   -2.098620
 263 H     1.0000    0     1.008   12.862380    4.213207  -13.240546

--------------------------------
INTERNAL COORDINATES (ANGSTROEM)
--------------------------------
 N      0   0   0     0.000000000000     0.00000000     0.00000000
 C      1   0   0     1.496485293931     0.00000000     0.00000000
 C      2   1   0     1.538248111755   108.95707600     0.00000000
 C      1   2   3     1.496414831464   114.20438044   220.80626298
 C      4   1   2     1.538262800709   108.95138763    86.63561032
 C      1   2   3     1.496507354070   114.23998948    86.67962728
 C      6   1   2     1.538264627836   108.96608837   220.99044800
 N      3   2   1     1.446650446813   108.65917849    52.97485144
 N      5   4   1     1.446676698783   108.68517018    52.88795090
 N      7   6   1     1.446722297224   108.72781110    52.72031592
 Mg     8   3   2     2.244971400151   129.90209620   290.76604962
 H      2   1   3     1.091178622070   110.37968361   237.44676882
 H      2   1   3     1.092772910922   108.77737264   119.23361155
 H      3   2   1     1.096062825968   108.36864162   175.50586084
 H      3   2   1     1.094369324638   110.50204575   294.47770120
 H      4   1   2     1.091238108269   110.36525200   324.09437733
 H      4   1   2     1.092748045884   108.78941230   205.86178364
 H      5   4   1     1.096016428850   108.36814999   175.42074035
 H      5   4   1     1.094465643276   110.52959858   294.40395524
 H      6   1   2     1.091212678186   110.39168538    98.47592722
 H      6   1   2     1.092718245990   108.79352713   340.24639900
 H      7   6   1     1.095991700485   108.35949755   175.24439675
 H      7   6   1     1.094410281230   110.50876210   294.21873619
 C      8   3   2     1.267814690652   119.27000685   111.27642750
 C     24   8   3    12.201621081129   138.41684922   148.24922337
 C      9   5   4    10.060974258364   127.64768815   146.88962863
 C     25  24   8     5.659788086269    30.07917645    63.47586435
 C     27  25  24     1.392822412379   120.70015294     4.26220847
 C     28  27  25     1.393674659923   120.37903882   184.43358948
 C     29  28  27     1.392766805103   119.62573665   359.95327818
 C     30  29  28     1.393730095929   120.37107960     0.03528684
 C     31  30  29     1.392759505030   119.63213871     0.00000000
 C     27  25  24     1.473080272447     3.23338504    93.80301309
 C     33  27  28     1.396232289136   121.31648619   219.63891323
 C     34  33  27     1.384388918089   118.89099222   183.44500688
 C     35  34  33     1.395860048015   119.27894842   359.45629299
 N     36  35  34     1.340543417059   121.88765349   358.69783493
 C     37  36  35     1.323852685988   118.81373056     1.66459829
 C     29  28  27     1.473137185950   119.77783975   179.34885552
 C     39  29  28     1.396166961570   121.29297202    40.58343527
 C     40  39  29     1.384382611599   118.88829434   183.29748938
 C     41  40  39     1.395893184166   119.26696838   359.51180026
 N     42  41  40     1.340537912131   121.90220203   358.66739799
 C     43  42  41     1.323904789162   118.81046076     1.69008337
 C     31  30  29     1.473057423415   119.76878540   179.41602115
 C     45  31  30     1.401194204221   121.01395113   222.06122429
 C     45  31  30     1.396169400003   121.28146413    40.54443735
 C     47  45  31     1.384349393864   118.88779631   183.33531154
 C     48  47  45     1.395875303956   119.27223726   359.36928915
 N     46  45  31     1.323960717524   123.40463057   177.09145002
 H     34  33  27     1.079326577475   121.17246375     4.24870431
 H     35  34  33     1.079217083362   120.49259398   179.56848301
 H     38  37  36     1.082136815577   115.69449398   177.62592186
 H     40  39  29     1.079309239270   121.14927941     4.14688398
 H     41  40  39     1.079260705844   120.48524466   179.67015730
 H     44  43  42     1.082263995911   115.71875371   177.60488308
 H     46  45  31     1.082252803938   120.82676382   359.36560144
 H     47  45  31     1.079239624282   121.15910694     4.09641927
 H     48  47  45     1.079293121430   120.48849474   179.55324259
 H     24   8   3     1.091260931650   121.98895319     2.13111093
 N     25  24   8     3.876786964041    89.95983482   244.41656263
 C     61  25  24     1.496573159172   110.44382602   305.15568377
 C     62  61  25     1.538329450895   108.98613510    24.04940198
 C     61  25  24     1.496525525016   132.35289944   104.02661143
 C     64  61  25     1.538340833382   108.97678134   288.51742926
 C     61  25  24     1.496571880711    57.77390131   198.70584976
 C     66  61  25     1.538422168791   108.94482670   320.68225221
 N     63  62  61     1.446678666185   108.73619840    52.78625190
 N     65  64  61     1.446754302865   108.71223162    52.69109220
 N     25  24   8     1.267814495098    92.96737061   269.21343709
 Mg    37  36  35     2.139418500157   113.21038972   184.59989081
 H     62  61  25     1.091231904521   110.36619876   261.53719644
 H     62  61  25     1.092730437533   108.78907900   143.32844216
 H     63  62  61     1.096025353000   108.35677266   175.31309047
 H     63  62  61     1.094465433780   110.49467051   294.30234168
 H     64  61  25     1.091236935725   110.39287798   165.97701389
 H     64  61  25     1.092728283177   108.78167314    47.76898589
 H     65  64  61     1.096064819372   108.35044469   175.22377490
 H     65  64  61     1.094418036587   110.50697327   294.19635489
 H     66  61  25     1.091251238365   110.38131405   198.13784073
 H     66  61  25     1.092780284131   108.78715931    79.91846252
 H     67  66  61     1.094486135203   110.52832303   294.38309393
 H     67  66  61     1.096064455179   108.38840781   175.38240837
 N     26   9   5     3.877752899759   164.42067977   140.88552621
 C     84  26   9     1.496463379369    57.75304114   166.00244962
 C     85  84  26     1.538230494115   108.95072524   320.69897230
 C     84  26   9     1.496481301205   110.58291558   272.34210881
 C     87  84  26     1.538238265138   108.94665947    23.83939729
 C     84  26   9     1.496522976303   132.21563246    71.26612917
 C     89  84  26     1.538276499589   108.95874364   288.45301272
 N     26   9   5     1.267775444252   145.55094433   183.05388606
 N     88  87  84     1.446661883360   108.70423606    52.90368127
 N     90  89  84     1.446729089836   108.72555354    52.80122165
 Mg    50  46  45     2.140477577541   127.92496564   176.01174472
 H     85  84  26     1.091200587622   110.38106265   198.16643226
 H     85  84  26     1.092825020139   108.79636359    79.94167703
 H     86  85  84     1.096032511086   108.36667052   175.42486225
 H     86  85  84     1.094431570542   110.53427957   294.40412141
 H     87  84  26     1.091183211187   110.37133643   261.31442473
 H     87  84  26     1.092805007996   108.80165922   143.09697046
 H     88  87  84     1.096064911024   108.36948162   175.43996940
 H     88  87  84     1.094486902955   110.51573591   294.41419434
 H     89  84  26     1.091216595558   110.37427238   165.93552611
 H     89  84  26     1.092802168446   108.79141992    47.73014825
 H     90  89  84     1.094409233908   110.49260128   294.30251692
 H     90  89  84     1.096043526223   108.35814185   175.34245790
 N     57  46  45    13.464404586787   125.78967802    95.26046702
 C    107  57  46     1.496510695879    90.06448805    72.90721582
 C    108 107  57     1.538292699499   108.97426481   328.61594473
 C    107  57  46     1.496555216613   106.02484920   188.20630326
 C    110 107  57     1.538353965825   108.95391176   349.22242532
 C    107  57  46     1.496550823093   115.49789852   315.84895370
 C    112 107  57     1.538368753027   108.96810989   323.55792595
 N    109 108 107     1.446643166986   108.69509484    52.90903302
 N    111 110 107     1.446688499849   108.70879855    52.76661551
 N    113 112 107     1.446700602101   108.69242069    52.73055492
 Mg   114 109 108     2.242997772137   129.86453412   290.59217644
 H    108 107  57     1.091219570580   110.37612180   206.08493332
 H    108 107  57     1.092770395627   108.79985080    87.88859344
 H    109 108 107     1.096034564129   108.35182513   175.42617589
 H    109 108 107     1.094509371204   110.53123963   294.42148369
 H    110 107  57     1.091223924136   110.37914403   226.72381244
 H    110 107  57     1.092840636251   108.80425386   108.49598266
 H    111 110 107     1.096041438680   108.35884158   175.30911032
 H    111 110 107     1.094432158161   110.50700347   294.27350078
 H    112 107  57     1.091210592580   110.38696018   201.01234989
 H    112 107  57     1.092779244827   108.78856942    82.81068934
 H    113 112 107     1.094428122604   110.52181097   294.23859312
 H    113 112 107     1.096094763613   108.35998363   175.25462315
 C      9   5   4     1.267818263835   119.28032802   111.62681294
 C    116 113 112     1.267836314151   119.25849720   111.41505974
 C     93  90  89     1.267844129258   119.25826419   111.38640621
 C    117 114 109     5.625561463799    94.61628792   249.89482195
 C    133 117 114     1.393735355944   140.05201537   154.47977924
 C    134 133 117     1.392743710356   120.33973075   145.95126289
 C    135 134 133     1.393767555699   119.64428939     0.00000000
 C    136 135 134     1.392763427330   120.37979757     0.06843286
 C    133 117 114     1.392776527788    94.79388659   305.31975118
 C    133 117 114     1.473132429957    32.17719950    90.89372484
 C    139 133 117     1.396125545457   121.32289316   179.12274774
 C    140 139 133     1.384479550420   118.88176363   183.27579472
 C    141 140 139     1.395896222703   119.27555093   359.64932806
 N    142 141 140     1.340551884623   121.89636194   358.59631215
 C    143 142 141     1.323835799040   118.80790877     1.61493745
 C    135 134 133     1.473089887939   120.63701352   180.56947927
 C    145 135 134     1.396248623167   121.23920869   219.96104547
 C    146 145 135     1.384338044894   118.90546620   183.37395655
 C    147 146 145     1.395882698018   119.25617832   359.42240580
 N    148 147 146     1.340597523339   121.89806456   358.71348708
 C    149 148 147     1.324018084896   118.82610232     1.70711972
 C    137 136 135     1.473112257646   120.58671684   180.43417140
 C    151 137 136     1.401269310654   121.00577334    41.47273156
 C    151 137 136     1.396212942519   121.29349138   220.01860613
 C    153 151 137     1.384400222672   118.88013484   183.28445877
 C    154 153 151     1.395890229775   119.28083457   359.41590482
 N    152 151 137     1.323912900643   123.40989022   177.07444999
 H    140 139 133     1.079357729580   121.14168394     4.15532367
 H    141 140 139     1.079244457745   120.49582602   179.76891533
 H    144 143 142     1.082190455134   115.69652932   177.71107117
 H    146 145 135     1.079213119930   121.14854516     4.21204995
 H    147 146 145     1.079293430188   120.49257602   179.55976349
 H    150 149 148     1.082348540935   115.73571344   177.52987249
 H    152 151 137     1.082258567825   120.83461381   359.33901109
 H    153 151 137     1.079353186614   121.16280093     4.09811308
 H    154 153 151     1.079272093051   120.49188863   179.54465592
 H    130   9   5     1.091270558037   121.99303081     2.04600708
 H    131 116 113     1.091283480692   121.98305891     2.07798997
 H    132  93  90     1.091245229478   121.98223173     1.99723957
 C     10   7   6     1.267874744773   119.26482160   111.62015035
 C    115 111 110     1.267807899490   119.26959471   111.52507450
 C     68  63  62     1.267833817107   119.28554005   111.16698186
 C    159 144 143     5.302614412540    87.12661764   284.05803667
 C    172 159 144     1.392783379459    78.92080161   320.81173529
 C    173 172 159     1.393775170087   120.35552360   230.84891246
 C    174 173 172     1.392796263890   119.64154388     0.00000000
 C    175 174 173     1.393728057538   120.36078579   359.93320595
 C    176 175 174     1.392757964334   119.63691598     0.12254477
 C    172 159 144     1.473102399174    63.75078948    93.25370707
 C    178 172 159     1.396171300527   121.24488995   162.82527901
 C    179 178 172     1.384392476707   118.88825462   183.29407169
 C    180 179 178     1.395880280735   119.26550709   359.45163651
 N    181 180 179     1.340559170296   121.90536408   358.70730777
 C    182 181 180     1.323967201708   118.81017996     1.69551314
 C    174 173 172     1.473076558070   119.76554462   179.29681384
 C    184 174 173     1.396151831203   121.32293074    40.60113149
 C    185 184 174     1.384477151967   118.88559281   183.42477620
 C    186 185 184     1.395928942359   119.26497012   359.37183182
 N    187 186 185     1.340586087742   121.89938026   358.81820389
 C    188 187 186     1.323845951346   118.81469187     1.65416218
 C    176 175 174     1.473155048719   119.77997184   179.51445879
 C    190 176 175     1.401193161827   120.98502312   222.28205428
 C    190 176 175     1.396176441160   121.29743651    40.74674305
 C    192 190 176     1.384441378048   118.88369920   183.21454921
 C    193 192 190     1.395902880390   119.26458976   359.54590681
 N    191 190 176     1.323911742030   123.39668840   177.09778289
 H    179 178 172     1.079305751406   121.13766991     4.08556558
 H    180 179 178     1.079292101497   120.50218371   179.59535606
 H    183 182 181     1.082339130875   115.72461181   177.52933555
 H    185 184 174     1.079327204681   121.12104457     4.21223764
 H    186 185 184     1.079293061158   120.49898321   179.56223471
 H    189 188 187     1.082218473009   115.77057098   177.50187163
 H    191 190 176     1.082260722359   120.79933755   359.39598053
 H    192 190 176     1.079291369261   121.14998639     4.02160696
 H    193 192 190     1.079270413323   120.49452994   179.63272912
 H    169  10   7     1.091298056508   121.97881066     1.98167415
 H    171  68  63     1.091306673339   121.99396636     1.95215844
 C    114 109 108     1.267834327233   119.27486297   111.21719409
 C     92  88  87     1.267810569334   119.26242244   111.72963537
 C     69  65  64     1.267847481046   119.28184978   111.53321797
 C     57  46  45     4.436618599243   166.08978088   132.41042715
 C    210  57  46     1.392813840916   110.94501114   340.88210191
 C    211 210  57     1.393729707041   120.35815319   232.39307811
 C    212 211 210     1.392750077148   119.64253490     0.00000000
 C    213 212 211     1.393701477924   120.36210044   359.95094971
 C    214 213 212     1.392766204298   119.63658685     0.06097109
 C    210  57  46     1.473123697399    47.10841831    93.75208635
 C    216 210  57     1.396174267884   121.30604901   128.88718305
 C    217 216 210     1.384408251325   118.88564838   183.32247264
 C    218 217 216     1.395875426611   119.27288916   359.43083776
 N    219 218 217     1.340554406775   121.90167690   358.76801289
 C    220 219 218     1.323902706162   118.80584941     1.65735272
 C    212 211 210     1.473173843930   119.79721591   179.41785533
 C    222 212 211     1.396169296669   121.31535848    40.81387675
 C    223 222 212     1.384442405814   118.87388180   183.32101715
 C    224 223 222     1.395897214916   119.27299374   359.39037859
 N    225 224 223     1.340553517033   121.90418653   358.73728511
 C    226 225 224     1.323925973913   118.80391879     1.71823854
 C    214 213 212     1.473094079738   119.77152800   179.49420313
 C    228 214 213     1.401259436189   121.00383831   222.01324047
 C    228 214 213     1.396214508767   121.29431255    40.52812902
 C    230 228 214     1.384417437905   118.88936778   183.26390615
 C    231 230 228     1.395858558504   119.27327877   359.40874643
 N    229 228 214     1.323901864012   123.39953832   177.13384153
 H    217 216 210     1.079309151471   121.14867768     4.10977425
 H    218 217 216     1.079263011958   120.49717157   179.62091992
 H    223 222 212     1.079378365516   121.16640940     4.13588161
 H    224 223 222     1.079259914472   120.49701468   179.55693744
 H    227 226 225     1.082315230579   115.73124890   177.53074925
 H    229 228 214     1.082320556178   120.84649071   359.43198200
 H    230 228 214     1.079329914481   121.16356521     4.06122136
 H    231 230 228     1.079243875776   120.49145325   179.59276075
 H    207 114 109     1.091282399927   121.99763523     2.01277039
 H    209  69  65     1.091282548467   121.99157270     2.02254085
 H     26   9   5     1.091253203932    78.95415833   315.08004834
 H     28  27  25     1.078151533325   119.87460716     5.34519449
 H     30  29  28     1.078200283105   119.88231481   180.93234693
 H     32  31  30     1.078191234410   119.87883524   180.84677551
 H    134 133 117     1.078204757265   119.76271757   325.04997818
 H    136 135 134     1.078220601037   119.73330361   179.10990982
 H    138 133 117     1.078158146551   119.86743414    22.04191195
 H    173 172 159     1.078218978637   119.88070757    51.74718361
 H    175 174 173     1.078228167459   119.88272424   180.87432003
 H    177 176 175     1.078236021484   119.88235404   180.83237243
 H    211 210  57     1.078237064901   119.89392508    53.30772197
 H    213 212 211     1.078176366015   119.88743416   180.89467487
 H    215 214 213     1.078182340118   119.88198985   180.86616221
 H     25  24   8     1.091295339191   143.27300869   106.17154121
 H    208  92  88     1.091283325078   121.97711812     2.04909533
 H    221 220 219     1.082225183256   115.74031954   177.57372125
 H    170 115 111     1.091240912241   121.98146635     2.04779877
 H      1   2   3     1.038439340748   104.15346495   333.73571330
 H     61  25  24     1.038399083055    48.05256949    36.05683185
 H    107  57  46     1.038419298636    15.02484330   272.99855923
 H     84  26   9     1.038454094982    48.03938150     3.09570400

---------------------------
INTERNAL COORDINATES (A.U.)
---------------------------
 N      0   0   0     0.000000000000     0.00000000     0.00000000
 C      1   0   0     2.827947368971     0.00000000     0.00000000
 C      2   1   0     2.906867657238   108.95707600     0.00000000
 C      1   2   3     2.827814214206   114.20438044   220.80626298
 C      4   1   2     2.906895415338   108.95138763    86.63561032
 C      1   2   3     2.827989056591   114.23998948    86.67962728
 C      6   1   2     2.906898868108   108.96608837   220.99044800
 N      3   2   1     2.733773155991   108.65917849    52.97485144
 N      5   4   1     2.733822765025   108.68517018    52.88795090
 N      7   6   1     2.733908933591   108.72781110    52.72031592
 Mg     8   3   2     4.242381124772   129.90209620   290.76604962
 H      2   1   3     2.062028758902   110.37968361   237.44676882
 H      2   1   3     2.065041528211   108.77737264   119.23361155
 H      3   2   1     2.071258566652   108.36864162   175.50586084
 H      3   2   1     2.068058312930   110.50204575   294.47770120
 H      4   1   2     2.062141171526   110.36525200   324.09437733
 H      4   1   2     2.064994540098   108.78941230   205.86178364
 H      5   4   1     2.071170888805   108.36814999   175.42074035
 H      5   4   1     2.068240328777   110.52959858   294.40395524
 H      6   1   2     2.062093115635   110.39168538    98.47592722
 H      6   1   2     2.064938226460   108.79352713   340.24639900
 H      7   6   1     2.071124158967   108.35949755   175.24439675
 H      7   6   1     2.068135709672   110.50876210   294.21873619
 C      8   3   2     2.395822553895   119.27000685   111.27642750
 C     24   8   3    23.057722233214   138.41684922   148.24922337
 C      9   5   4    19.012485988740   127.64768815   146.88962863
 C     25  24   8    10.695449459080    30.07917645    63.47586435
 C     27  25  24     2.632052912584   120.70015294     4.26220847
 C     28  27  25     2.633663427039   120.37903882   184.43358948
 C     29  28  27     2.631947830061   119.62573665   359.95327818
 C     30  29  28     2.633768185911   120.37107960     0.03528684
 C     31  30  29     2.631934034922   119.63213871     0.00000000
 C     27  25  24     2.783718288207     3.23338504    93.80301309
 C     33  27  28     2.638496645805   121.31648619   219.63891323
 C     34  33  27     2.616115918024   118.89099222   183.44500688
 C     35  34  33     2.637793212030   119.27894842   359.45629299
 N     36  35  34     2.533259928872   121.88765349   358.69783493
 C     37  36  35     2.501719018173   118.81373056     1.66459829
 C     29  28  27     2.783825839141   119.77783975   179.34885552
 C     39  29  28     2.638373194596   121.29297202    40.58343527
 C     40  39  29     2.616104000485   118.88829434   183.29748938
 C     41  40  39     2.637855830281   119.26696838   359.51180026
 N     42  41  40     2.533249526065   121.90220203   358.66739799
 C     43  42  41     2.501817478903   118.81046076     1.69008337
 C     31  30  29     2.783675109794   119.76878540   179.41602115
 C     45  31  30     2.647873306416   121.01395113   222.06122429
 C     45  31  30     2.638377802567   121.28146413    40.54443735
 C     47  45  31     2.616041228063   118.88779631   183.33531154
 C     48  47  45     2.637822041581   119.27223726   359.36928915
 N     46  45  31     2.501923168191   123.40463057   177.09145002
 H     34  33  27     2.039631640491   121.17246375     4.24870431
 H     35  34  33     2.039424726604   120.49259398   179.56848301
 H     38  37  36     2.044942220874   115.69449398   177.62592186
 H     40  39  29     2.039598876031   121.14927941     4.14688398
 H     41  40  39     2.039507161147   120.48524466   179.67015730
 H     44  43  42     2.045182556875   115.71875371   177.60488308
 H     46  45  31     2.045161407111   120.82676382   359.36560144
 H     47  45  31     2.039467322769   121.15910694     4.09641927
 H     48  47  45     2.039568417727   120.48849474   179.55324259
 H     24   8   3     2.062184301465   121.98895319     2.13111093
 N     25  24   8     7.326065641593    89.95983482   244.41656263
 C     61  25  24     2.828113410213   110.44382602   305.15568377
 C     62  61  25     2.907021365937   108.98613510    24.04940198
 C     61  25  24     2.828023394702   132.35289944   104.02661143
 C     64  61  25     2.907042875721   108.97678134   288.51742926
 C     61  25  24     2.828110994271    57.77390131   198.70584976
 C     66  61  25     2.907196577368   108.94482670   320.68225221
 N     63  62  61     2.733826482875   108.73619840    52.78625190
 N     65  64  61     2.733969415487   108.71223162    52.69109220
 N     25  24   8     2.395822184352    92.96737061   269.21343709
 Mg    37  36  35     4.042915051140   113.21038972   184.59989081
 H     62  61  25     2.062129448141   110.36619876   261.53719644
 H     62  61  25     2.064961265137   108.78907900   143.32844216
 H     63  62  61     2.071187753005   108.35677266   175.31309047
 H     63  62  61     2.068239932888   110.49467051   294.30234168
 H     64  61  25     2.062138955739   110.39287798   165.97701389
 H     64  61  25     2.064957193995   108.78167314    47.76898589
 H     65  64  61     2.071262333639   108.35044469   175.22377490
 H     65  64  61     2.068150365174   110.50697327   294.19635489
 H     66  61  25     2.062165983813   110.38131405   198.13784073
 H     66  61  25     2.065055461557   108.78715931    79.91846252
 H     67  66  61     2.068279052908   110.52832303   294.38309393
 H     67  66  61     2.071261645413   108.38840781   175.38240837
 N     26   9   5     7.327890995563   164.42067977   140.88552621
 C     84  26   9     2.827905956450    57.75304114   166.00244962
 C     85  84  26     2.906834364723   108.95072524   320.69897230
 C     84  26   9     2.827939823812   110.58291558   272.34210881
 C     87  84  26     2.906849049828   108.94665947    23.83939729
 C     84  26   9     2.828018578333   132.21563246    71.26612917
 C     89  84  26     2.906921302470   108.95874364   288.45301272
 N     26   9   5     2.395748388946   145.55094433   183.05388606
 N     88  87  84     2.733794767933   108.70423606    52.90368127
 N     90  89  84     2.733921769767   108.72555354    52.80122165
 Mg    50  46  45     4.044916417353   127.92496564   176.01174472
 H     85  84  26     2.062070267779   110.38106265   198.16643226
 H     85  84  26     2.065140000360   108.79636359    79.94167703
 H     86  85  84     2.071201279826   108.36667052   175.42486225
 H     86  85  84     2.068175940642   110.53427957   294.40412141
 H     87  84  26     2.062037431077   110.37133643   261.31442473
 H     87  84  26     2.065102182890   108.80165922   143.09697046
 H     88  87  84     2.071262506836   108.36948162   175.43996940
 H     88  87  84     2.068280503748   110.51573591   294.41419434
 H     89  84  26     2.062100518394   110.37427238   165.93552611
 H     89  84  26     2.065096816919   108.79141992    47.73014825
 H     90  89  84     2.068133730520   110.49260128   294.30251692
 H     90  89  84     2.071222095418   108.35814185   175.34245790
 N     57  46  45    25.444037225341   125.78967802    95.26046702
 C    107  57  46     2.827995371695    90.06448805    72.90721582
 C    108 107  57     2.906951915863   108.97426481   328.61594473
 C    107  57  46     2.828079503690   106.02484920   188.20630326
 C    110 107  57     2.907067692440   108.95391176   349.22242532
 C    107  57  46     2.828071201141   115.49789852   315.84895370
 C    112 107  57     2.907095636202   108.96810989   323.55792595
 N    109 108 107     2.733759399112   108.69509484    52.90903302
 N    111 110 107     2.733845065807   108.70879855    52.76661551
 N    113 112 107     2.733867935750   108.69242069    52.73055492
 Mg   114 109 108     4.238651508334   129.86453412   290.59217644
 H    108 107  57     2.062106140371   110.37612180   206.08493332
 H    108 107  57     2.065036774991   108.79985080    87.88859344
 H    109 108 107     2.071205159516   108.35182513   175.42617589
 H    109 108 107     2.068322962586   110.53123963   294.42148369
 H    110 107  57     2.062114367399   110.37914403   226.72381244
 H    110 107  57     2.065169510535   108.80425386   108.49598266
 H    111 110 107     2.071218150534   108.35884158   175.30911032
 H    111 110 107     2.068177051080   110.50700347   294.27350078
 H    112 107  57     2.062089174410   110.38696018   201.01234989
 H    112 107  57     2.065053497556   108.78856942    82.81068934
 H    113 112 107     2.068169424984   110.52181097   294.23859312
 H    113 112 107     2.071318920054   108.35998363   175.25462315
 C      9   5   4     2.395829306232   119.28032802   111.62681294
 C    116 113 112     2.395863416386   119.25849720   111.41505974
 C     93  90  89     2.395878184797   119.25826419   111.38640621
 C    117 114 109    10.630770516121    94.61628792   249.89482195
 C    133 117 114     2.633778125898   140.05201537   154.47977924
 C    134 133 117     2.631904187315   120.33973075   145.95126289
 C    135 134 133     2.633838974616   119.64428939     0.00000000
 C    136 135 134     2.631941446995   120.37979757     0.06843286
 C    133 117 114     2.631966203273    94.79388659   305.31975118
 C    133 117 114     2.783816851618    32.17719950    90.89372484
 C    139 133 117     2.638294929486   121.32289316   179.12274774
 C    140 139 133     2.616287188309   118.88176363   183.27579472
 C    141 140 139     2.637861572284   119.27555093   359.64932806
 N    142 141 140     2.533275930249   121.89636194   358.59631215
 C    143 142 141     2.501687106466   118.80790877     1.61493745
 C    135 134 133     2.783736458854   120.63701352   180.56947927
 C    145 135 134     2.638527512651   121.23920869   219.96104547
 C    146 145 135     2.616019781617   118.90546620   183.37395655
 C    147 146 145     2.637836014334   119.25617832   359.42240580
 N    148 147 146     2.533362174923   121.89806456   358.71348708
 C    149 148 147     2.502031576813   118.82610232     1.70711972
 C    137 136 135     2.783778731473   120.58671684   180.43417140
 C    151 137 136     2.648015237005   121.00577334    41.47273156
 C    151 137 136     2.638460085997   121.29349138   220.01860613
 C    153 151 137     2.616137280589   118.88013484   183.28445877
 C    154 153 151     2.637850247291   119.28083457   359.41590482
 N    152 151 137     2.501832807381   123.40989022   177.07444999
 H    140 139 133     2.039690509438   121.14168394     4.15532367
 H    141 140 139     2.039476456690   120.49582602   179.76891533
 H    144 143 142     2.045043584947   115.69652932   177.71107117
 H    146 145 135     2.039417236803   121.14854516     4.21204995
 H    147 146 145     2.039569001196   120.49257602   179.55976349
 H    150 149 148     2.045342323817   115.73571344   177.52987249
 H    152 151 137     2.045172299280   120.83461381   359.33901109
 H    153 151 137     2.039681924476   121.16280093     4.09811308
 H    154 153 151     2.039528679851   120.49188863   179.54465592
 H    130   9   5     2.062202492701   121.99303081     2.04600708
 H    131 116 113     2.062226912980   121.98305891     2.07798997
 H    132  93  90     2.062154628662   121.98223173     1.99723957
 C     10   7   6     2.395936039736   119.26482160   111.62015035
 C    115 111 110     2.395809720459   119.26959471   111.52507450
 C     68  63  62     2.395858697656   119.28554005   111.16698186
 C    159 144 143    10.020489033484    87.12661764   284.05803667
 C    172 159 144     2.631979151054    78.92080161   320.81173529
 C    173 172 159     2.633853363724   120.35552360   230.84891246
 C    174 173 172     2.632003499100   119.64154388     0.00000000
 C    175 174 173     2.633764333908   120.36078579   359.93320595
 C    176 175 174     2.631931123429   119.63691598     0.12254477
 C    172 159 144     2.783760101662    63.75078948    93.25370707
 C    178 172 159     2.638381394038   121.24488995   162.82527901
 C    179 178 172     2.616122642837   118.88825462   183.29407169
 C    180 179 178     2.637831446330   119.26550709   359.45163651
 N    181 180 179     2.533289698176   121.90536408   358.70730777
 C    182 181 180     2.501935421523   118.81017996     1.69551314
 C    174 173 172     2.783711269052   119.76554462   179.29681384
 C    184 174 173     2.638344602346   121.32293074    40.60113149
 C    185 184 174     2.616282655889   118.88559281   183.42477620
 C    186 185 184     2.637923403473   119.26497012   359.37183182
 N    187 186 185     2.533340564778   121.89938026   358.81820389
 C    188 187 186     2.501706291544   118.81469187     1.65416218
 C    176 175 174     2.783859594882   119.77997184   179.51445879
 C    190 176 175     2.647871336576   120.98502312   222.28205428
 C    190 176 175     2.638391108426   121.29743651    40.74674305
 C    192 190 176     2.616215052979   118.88369920   183.21454921
 C    193 192 190     2.637874153488   119.26458976   359.54590681
 N    191 190 176     2.501830617920   123.39668840   177.09778289
 H    179 178 172     2.039592284923   121.13766991     4.08556558
 H    180 179 178     2.039566490333   120.50218371   179.59535606
 H    183 182 181     2.045324541380   115.72461181   177.52933555
 H    185 184 174     2.039632825739   121.12104457     4.21223764
 H    186 185 184     2.039568303830   120.49898321   179.56223471
 H    189 188 187     2.045096531057   115.77057098   177.50187163
 H    191 190 176     2.045176370757   120.79933755   359.39598053
 H    192 190 176     2.039565106609   121.14998639     4.02160696
 H    193 192 190     2.039525505625   120.49452994   179.63272912
 H    169  10   7     2.062254457280   121.97881066     1.98167415
 H    171  68  63     2.062270740732   121.99396636     1.95215844
 C    114 109 108     2.395859661655   119.27486297   111.21719409
 C     92  88  87     2.395814765732   119.26242244   111.72963537
 C     69  65  64     2.395884518759   119.28184978   111.53321797
 C     57  46  45     8.383994113230   166.08978088   132.41042715
 C    210  57  46     2.632036714867   110.94501114   340.88210191
 C    211 210  57     2.633767451017   120.35815319   232.39307811
 C    212 211 210     2.631916218806   119.64253490     0.00000000
 C    213 212 211     2.633714105717   120.36210044   359.95094971
 C    214 213 212     2.631946694704   119.63658685     0.06097109
 C    210  57  46     2.783800349474    47.10841831    93.75208635
 C    216 210  57     2.638387001529   121.30604901   128.88718305
 C    217 216 210     2.616152452545   118.88564838   183.32247264
 C    218 217 216     2.637822273365   119.27288916   359.43083776
 N    219 218 217     2.533280696427   121.90167690   358.76801289
 C    220 219 218     2.501813542603   118.80584941     1.65735272
 C    212 211 210     2.783895112683   119.79721591   179.41785533
 C    222 212 211     2.638377607293   121.31535848    40.81387675
 C    223 222 212     2.616216995176   118.87388180   183.32101715
 C    224 223 222     2.637863447294   119.27299374   359.39037859
 N    225 224 223     2.533279015058   121.90418653   358.73728511
 C    226 225 224     2.501857512281   118.80391879     1.71823854
 C    214 213 212     2.783744380206   119.77152800   179.49420313
 C    228 214 213     2.647996576970   121.00383831   222.01324047
 C    228 214 213     2.638463045778   121.29431255    40.52812902
 C    230 228 214     2.616169812666   118.88936778   183.26390615
 C    231 230 228     2.637790397264   119.27327877   359.40874643
 N    229 228 214     2.501811951170   123.39953832   177.13384153
 H    217 216 210     2.039598710114   121.14867768     4.10977425
 H    218 217 216     2.039511519072   120.49717157   179.62091992
 H    223 222 212     2.039729505705   121.16640940     4.13588161
 H    224 223 222     2.039505665671   120.49701468   179.55693744
 H    227 226 225     2.045279376366   115.73124890   177.53074925
 H    229 228 214     2.045289440290   120.84649071   359.43198200
 H    230 228 214     2.039637946517   121.16356521     4.06122136
 H    231 230 228     2.039475356928   120.49145325   179.59276075
 H    207 114 109     2.062224870630   121.99763523     2.01277039
 H    209  69  65     2.062225151329   121.99157270     2.02254085
 H     26   9   5     2.062169698196    78.95415833   315.08004834
 H     28  27  25     2.037411128852   119.87460716     5.34519449
 H     30  29  28     2.037503252585   119.88231481   180.93234693
 H     32  31  30     2.037486153030   119.87883524   180.84677551
 H    134 133 117     2.037511707522   119.76271757   325.04997818
 H    136 135 134     2.037541647912   119.73330361   179.10990982
 H    138 133 117     2.037423626037   119.86743414    22.04191195
 H    173 172 159     2.037538582020   119.88070757    51.74718361
 H    175 174 173     2.037555946377   119.88272424   180.87432003
 H    177 176 175     2.037570788333   119.88235404   180.83237243
 H    211 210  57     2.037572760106   119.89392508    53.30772197
 H    213 212 211     2.037458055834   119.88743416   180.89467487
 H    215 214 213     2.037469345253   119.88198985   180.86616221
 H     25  24   8     2.062249322295   143.27300869   106.17154121
 H    208  92  88     2.062226618913   121.97711812     2.04909533
 H    221 220 219     2.045109211587   115.74031954   177.57372125
 H    170 115 111     2.062146470266   121.98146635     2.04779877
 H      1   2   3     1.962365960703   104.15346495   333.73571330
 H     61  25  24     1.962289884689    48.05256949    36.05683185
 H    107  57  46     1.962328086600    15.02484330   272.99855923
 H     84  26   9     1.962393842165    48.03938150     3.09570400

---------------------
BASIS SET INFORMATION
---------------------
There are 4 groups of distinct atoms

 Group   1 Type N   : 11s6p2d contracted to 5s3p2d pattern {62111/411/11}
 Group   2 Type C   : 11s6p1d contracted to 5s3p1d pattern {62111/411/1}
 Group   3 Type Mg  : 14s7p contracted to 5s3p pattern {73211/511}
 Group   4 Type H   : 4s1p contracted to 2s1p pattern {31/1}

Atom   0N    basis set group =>   1
Atom   1C    basis set group =>   2
Atom   2C    basis set group =>   2
Atom   3C    basis set group =>   2
Atom   4C    basis set group =>   2
Atom   5C    basis set group =>   2
Atom   6C    basis set group =>   2
Atom   7N    basis set group =>   1
Atom   8N    basis set group =>   1
Atom   9N    basis set group =>   1
Atom  10Mg   basis set group =>   3
Atom  11H    basis set group =>   4
Atom  12H    basis set group =>   4
Atom  13H    basis set group =>   4
Atom  14H    basis set group =>   4
Atom  15H    basis set group =>   4
Atom  16H    basis set group =>   4
Atom  17H    basis set group =>   4
Atom  18H    basis set group =>   4
Atom  19H    basis set group =>   4
Atom  20H    basis set group =>   4
Atom  21H    basis set group =>   4
Atom  22H    basis set group =>   4
Atom  23C    basis set group =>   2
Atom  24C    basis set group =>   2
Atom  25C    basis set group =>   2
Atom  26C    basis set group =>   2
Atom  27C    basis set group =>   2
Atom  28C    basis set group =>   2
Atom  29C    basis set group =>   2
Atom  30C    basis set group =>   2
Atom  31C    basis set group =>   2
Atom  32C    basis set group =>   2
Atom  33C    basis set group =>   2
Atom  34C    basis set group =>   2
Atom  35C    basis set group =>   2
Atom  36N    basis set group =>   1
Atom  37C    basis set group =>   2
Atom  38C    basis set group =>   2
Atom  39C    basis set group =>   2
Atom  40C    basis set group =>   2
Atom  41C    basis set group =>   2
Atom  42N    basis set group =>   1
Atom  43C    basis set group =>   2
Atom  44C    basis set group =>   2
Atom  45C    basis set group =>   2
Atom  46C    basis set group =>   2
Atom  47C    basis set group =>   2
Atom  48C    basis set group =>   2
Atom  49N    basis set group =>   1
Atom  50H    basis set group =>   4
Atom  51H    basis set group =>   4
Atom  52H    basis set group =>   4
Atom  53H    basis set group =>   4
Atom  54H    basis set group =>   4
Atom  55H    basis set group =>   4
Atom  56H    basis set group =>   4
Atom  57H    basis set group =>   4
Atom  58H    basis set group =>   4
Atom  59H    basis set group =>   4
Atom  60N    basis set group =>   1
Atom  61C    basis set group =>   2
Atom  62C    basis set group =>   2
Atom  63C    basis set group =>   2
Atom  64C    basis set group =>   2
Atom  65C    basis set group =>   2
Atom  66C    basis set group =>   2
Atom  67N    basis set group =>   1
Atom  68N    basis set group =>   1
Atom  69N    basis set group =>   1
Atom  70Mg   basis set group =>   3
Atom  71H    basis set group =>   4
Atom  72H    basis set group =>   4
Atom  73H    basis set group =>   4
[...]
175 C      5.8535     6.0000     0.1465     3.5319     3.5319     0.0000
176 C      6.2381     6.0000    -0.2381     3.7982     3.7982     0.0000
177 C      5.8824     6.0000     0.1176     3.2940     3.2940    -0.0000
178 C      6.2149     6.0000    -0.2149     3.7831     3.7831    -0.0000
179 C      6.1758     6.0000    -0.1758     3.7597     3.7597     0.0000
180 C      5.7156     6.0000     0.2844     3.6429     3.6429    -0.0000
181 N      7.0793     7.0000    -0.0793     3.0361     3.0361    -0.0000
182 C      6.1874     6.0000    -0.1874     3.9744     3.9744    -0.0000
183 C      5.8815     6.0000     0.1185     3.2930     3.2930    -0.0000
184 C      6.2141     6.0000    -0.2141     3.7806     3.7806    -0.0000
185 C      6.1773     6.0000    -0.1773     3.7601     3.7601    -0.0000
186 C      5.7146     6.0000     0.2854     3.6432     3.6432    -0.0000
187 N      7.0782     7.0000    -0.0782     3.0340     3.0340    -0.0000
188 C      6.1893     6.0000    -0.1893     3.9772     3.9772    -0.0000
189 C      5.8816     6.0000     0.1184     3.2929     3.2929    -0.0000
190 C      6.1879     6.0000    -0.1879     3.9740     3.9740    -0.0000
191 C      6.2154     6.0000    -0.2154     3.7830     3.7830    -0.0000
192 C      6.1757     6.0000    -0.1757     3.7586     3.7586    -0.0000
193 C      5.7166     6.0000     0.2834     3.6449     3.6449     0.0000
194 N      7.0778     7.0000    -0.0778     3.0325     3.0325    -0.0000
195 H      0.7978     1.0000     0.2022     0.9505     0.9505    -0.0000
196 H      0.7937     1.0000     0.2063     0.9496     0.9496     0.0000
197 H      0.8172     1.0000     0.1828     0.9588     0.9588    -0.0000
198 H      0.7981     1.0000     0.2019     0.9506     0.9506     0.0000
199 H      0.7938     1.0000     0.2062     0.9496     0.9496    -0.0000
200 H      0.8173     1.0000     0.1827     0.9589     0.9589    -0.0000
201 H      0.8173     1.0000     0.1827     0.9588     0.9588    -0.0000
202 H      0.7978     1.0000     0.2022     0.9505     0.9505    -0.0000
203 H      0.7941     1.0000     0.2059     0.9497     0.9497    -0.0000
204 H      0.8147     1.0000     0.1853     0.9609     0.9609     0.0000
205 H      0.8147     1.0000     0.1853     0.9608     0.9608    -0.0000
206 C      6.3002     6.0000    -0.3002     4.0647     4.0647     0.0000
207 C      6.3002     6.0000    -0.3002     4.0625     4.0625    -0.0000
208 C      6.3010     6.0000    -0.3010     4.0643     4.0643     0.0000
209 C      5.8534     6.0000     0.1466     3.5296     3.5296    -0.0000
210 C      6.2376     6.0000    -0.2376     3.7959     3.7959    -0.0000
211 C      5.8510     6.0000     0.1490     3.5289     3.5289    -0.0000
212 C      6.2377     6.0000    -0.2377     3.7977     3.7977    -0.0000
213 C      5.8534     6.0000     0.1466     3.5323     3.5323    -0.0000
214 C      6.2377     6.0000    -0.2377     3.7976     3.7976    -0.0000
215 C      5.8791     6.0000     0.1209     3.2893     3.2893     0.0000
216 C      6.2148     6.0000    -0.2148     3.7811     3.7811     0.0000
217 C      6.1779     6.0000    -0.1779     3.7604     3.7604    -0.0000
218 C      5.7140     6.0000     0.2860     3.6448     3.6448    -0.0000
219 N      7.0795     7.0000    -0.0795     3.0360     3.0360    -0.0000
220 C      6.1879     6.0000    -0.1879     3.9768     3.9768    -0.0000
221 C      5.8831     6.0000     0.1169     3.2944     3.2944    -0.0000
222 C      6.2137     6.0000    -0.2137     3.7816     3.7816    -0.0000
223 C      6.1770     6.0000    -0.1770     3.7612     3.7612    -0.0000
224 C      5.7178     6.0000     0.2822     3.6484     3.6484    -0.0000
225 N      7.0777     7.0000    -0.0777     3.0328     3.0328    -0.0000
226 C      6.1881     6.0000    -0.1881     3.9748     3.9748    -0.0000
227 C      5.8784     6.0000     0.1216     3.2879     3.2879     0.0000
228 C      6.1900     6.0000    -0.1900     3.9761     3.9761     0.0000
229 C      6.2148     6.0000    -0.2148     3.7816     3.7816    -0.0000
230 C      6.1773     6.0000    -0.1773     3.7604     3.7604     0.0000
231 C      5.7177     6.0000     0.2823     3.6462     3.6462    -0.0000
232 N      7.0773     7.0000    -0.0773     3.0343     3.0343     0.0000
233 H      0.7978     1.0000     0.2022     0.9505     0.9505     0.0000
234 H      0.7938     1.0000     0.2062     0.9496     0.9496     0.0000
235 H      0.7977     1.0000     0.2023     0.9505     0.9505    -0.0000
236 H      0.7937     1.0000     0.2063     0.9496     0.9496     0.0000
237 H      0.8177     1.0000     0.1823     0.9590     0.9590     0.0000
238 H      0.8175     1.0000     0.1825     0.9590     0.9590    -0.0000
239 H      0.7979     1.0000     0.2021     0.9506     0.9506    -0.0000
240 H      0.7937     1.0000     0.2063     0.9496     0.9496     0.0000
241 H      0.8145     1.0000     0.1855     0.9607     0.9607     0.0000
242 H      0.8148     1.0000     0.1852     0.9609     0.9609     0.0000
243 H      0.8149     1.0000     0.1851     0.9609     0.9609     0.0000
244 H      0.8092     1.0000     0.1908     0.9551     0.9551     0.0000
245 H      0.8087     1.0000     0.1913     0.9549     0.9549     0.0000
246 H      0.8089     1.0000     0.1911     0.9550     0.9550    -0.0000
247 H      0.8088     1.0000     0.1912     0.9550     0.9550    -0.0000
248 H      0.8091     1.0000     0.1909     0.9550     0.9550     0.0000
249 H      0.8089     1.0000     0.1911     0.9549     0.9549    -0.0000
250 H      0.8090     1.0000     0.1910     0.9550     0.9550    -0.0000
251 H      0.8085     1.0000     0.1915     0.9548     0.9548     0.0000
252 H      0.8090     1.0000     0.1910     0.9550     0.9550     0.0000
253 H      0.8090     1.0000     0.1910     0.9550     0.9550    -0.0000
254 H      0.8093     1.0000     0.1907     0.9551     0.9551     0.0000
255 H      0.8095     1.0000     0.1905     0.9552     0.9552    -0.0000
256 H      0.8150     1.0000     0.1850     0.9610     0.9610     0.0000
257 H      0.8151     1.0000     0.1849     0.9610     0.9610    -0.0000
258 H      0.8185     1.0000     0.1815     0.9594     0.9594    -0.0000
259 H      0.8146     1.0000     0.1854     0.9608     0.9608     0.0000
260 H      0.7906     1.0000     0.2094     1.0230     1.0230     0.0000
261 H      0.7909     1.0000     0.2091     1.0231     1.0231     0.0000
262 H      0.7904     1.0000     0.2096     1.0229     1.0229     0.0000
263 H      0.7902     1.0000     0.2098     1.0228     1.0228     0.0000

  Mayer bond orders larger than 0.100000
B(  0-N ,  1-C ) :   0.8837 B(  0-N ,  3-C ) :   0.8831 B(  0-N ,  5-C ) :   0.8830 
B(  0-N ,260-H ) :   0.8111 B(  1-C ,  2-C ) :   0.8636 B(  1-C , 11-H ) :   0.9372 
B(  1-C , 12-H ) :   0.9304 B(  2-C ,  7-N ) :   0.8564 B(  2-C , 13-H ) :   0.9348 
B(  2-C , 14-H ) :   0.9505 B(  3-C ,  4-C ) :   0.8648 B(  3-C , 15-H ) :   0.9376 
B(  3-C , 16-H ) :   0.9302 B(  4-C ,  8-N ) :   0.8555 B(  4-C , 17-H ) :   0.9342 
B(  4-C , 18-H ) :   0.9503 B(  5-C ,  6-C ) :   0.8654 B(  5-C , 19-H ) :   0.9374 
B(  5-C , 20-H ) :   0.9305 B(  6-C ,  9-N ) :   0.8563 B(  6-C , 21-H ) :   0.9349 
B(  6-C , 22-H ) :   0.9500 B(  7-N , 10-Mg) :   0.2008 B(  7-N , 23-C ) :   2.0384 
B(  7-N , 41-C ) :  -0.1584 B(  8-N , 10-Mg) :   0.2012 B(  8-N ,129-C ) :   2.0382 
B(  8-N ,147-C ) :  -0.1589 B(  9-N , 10-Mg) :   0.2011 B(  9-N ,168-C ) :   2.0391 
B(  9-N ,186-C ) :  -0.1591 B( 10-Mg, 42-N ) :   0.1881 B( 10-Mg,148-N ) :   0.1883 
B( 10-Mg,187-N ) :   0.1881 B( 23-C , 41-C ) :   0.9414 B( 23-C , 59-H ) :   0.8974 
B( 24-C , 35-C ) :   0.9433 B( 24-C , 69-N ) :   2.0391 B( 24-C ,256-H ) :   0.8964 
B( 25-C , 48-C ) :   0.9423 B( 25-C , 90-N ) :   2.0392 B( 25-C ,243-H ) :   0.8969 
B( 26-C , 27-C ) :   1.3937 B( 26-C , 31-C ) :   1.3636 B( 26-C , 32-C ) :   0.7393 
B( 27-C , 28-C ) :   1.3630 B( 27-C ,244-H ) :   0.9058 B( 28-C , 29-C ) :   1.3934 
B( 28-C , 38-C ) :   0.7393 B( 29-C , 30-C ) :   1.3634 B( 29-C ,245-H ) :   0.9058 
B( 30-C , 31-C ) :   1.3947 B( 30-C , 44-C ) :   0.7381 B( 31-C ,246-H ) :   0.9056 
B( 32-C , 33-C ) :   1.3163 B( 32-C , 37-C ) :   1.2764 B( 33-C , 34-C ) :   1.3665 
B( 33-C , 50-H ) :   0.9470 B( 34-C , 35-C ) :   1.3911 B( 34-C , 51-H ) :   0.9041 
B( 35-C , 36-N ) :   1.2802 B( 35-C , 69-N ) :  -0.1594 B( 36-N , 37-C ) :   1.4850 
B( 36-N , 70-Mg) :   0.1885 B( 37-C , 52-H ) :   0.9216 B( 38-C , 39-C ) :   1.3161 
B( 38-C , 43-C ) :   1.2769 B( 39-C , 40-C ) :   1.3659 B( 39-C , 53-H ) :   0.9473 
B( 40-C , 41-C ) :   1.3911 B( 40-C , 54-H ) :   0.9046 B( 41-C , 42-N ) :   1.2790 
B( 42-N , 43-C ) :   1.4837 B( 43-C , 55-H ) :   0.9214 B( 44-C , 45-C ) :   1.2777 
B( 44-C , 46-C ) :   1.3166 B( 45-C , 49-N ) :   1.4829 B( 45-C , 56-H ) :   0.9212 
B( 46-C , 47-C ) :   1.3658 B( 46-C , 57-H ) :   0.9474 B( 47-C , 48-C ) :   1.3914 
B( 47-C , 58-H ) :   0.9044 B( 48-C , 49-N ) :   1.2799 B( 48-C , 90-N ) :  -0.1591 
B( 49-N , 93-Mg) :   0.1879 B( 60-N , 61-C ) :   0.8830 B( 60-N , 63-C ) :   0.8833 
B( 60-N , 65-C ) :   0.8838 B( 60-N ,261-H ) :   0.8111 B( 61-C , 62-C ) :   0.8647 
B( 61-C , 71-H ) :   0.9376 B( 61-C , 72-H ) :   0.9306 B( 62-C , 67-N ) :   0.8570 
B( 62-C , 73-H ) :   0.9352 B( 62-C , 74-H ) :   0.9502 B( 63-C , 64-C ) :   0.8647 
B( 63-C , 75-H ) :   0.9372 B( 63-C , 76-H ) :   0.9309 B( 64-C , 68-N ) :   0.8572 
B( 64-C , 77-H ) :   0.9346 B( 64-C , 78-H ) :   0.9501 B( 65-C , 66-C ) :   0.8635 
B( 65-C , 79-H ) :   0.9378 B( 65-C , 80-H ) :   0.9306 B( 66-C , 69-N ) :   0.8563 
B( 66-C , 81-H ) :   0.9509 B( 66-C , 82-H ) :   0.9341 B( 67-N , 70-Mg) :   0.2013 
B( 67-N ,170-C ) :   2.0410 B( 67-N ,193-C ) :  -0.1588 B( 68-N , 70-Mg) :   0.2011 
B( 68-N ,208-C ) :   2.0391 B( 68-N ,231-C ) :  -0.1588 B( 69-N , 70-Mg) :   0.2016 
B( 70-Mg,194-N ) :   0.1888 B( 70-Mg,232-N ) :   0.1885 B( 83-N , 84-C ) :   0.8838 
B( 83-N , 86-C ) :   0.8833 B( 83-N , 88-C ) :   0.8827 B( 83-N ,263-H ) :   0.8110 
B( 84-C , 85-C ) :   0.8645 B( 84-C , 94-H ) :   0.9372 B( 84-C , 95-H ) :   0.9308 
B( 85-C , 90-N ) :   0.8569 B( 85-C , 96-H ) :   0.9346 B( 85-C , 97-H ) :   0.9504 
B( 86-C , 87-C ) :   0.8647 B( 86-C , 98-H ) :   0.9370 B( 86-C , 99-H ) :   0.9309 
B( 87-C , 91-N ) :   0.8577 B( 87-C ,100-H ) :   0.9344 B( 87-C ,101-H ) :   0.9501 
B( 88-C , 89-C ) :   0.8654 B( 88-C ,102-H ) :   0.9377 B( 88-C ,103-H ) :   0.9305 
B( 89-C , 92-N ) :   0.8557 B( 89-C ,104-H ) :   0.9504 B( 89-C ,105-H ) :   0.9347 
B( 90-N , 93-Mg) :   0.2008 B( 91-N , 93-Mg) :   0.2012 B( 91-N ,207-C ) :   2.0378 
B( 91-N ,218-C ) :  -0.1588 B( 92-N , 93-Mg) :   0.2008 B( 92-N ,131-C ) :   2.0402 
B( 92-N ,154-C ) :  -0.1591 B( 93-Mg,155-N ) :   0.1884 B( 93-Mg,219-N ) :   0.1882 
B(106-N ,107-C ) :   0.8834 B(106-N ,109-C ) :   0.8835 B(106-N ,111-C ) :   0.8836 
B(106-N ,262-H ) :   0.8108 B(107-C ,108-C ) :   0.8642 B(107-C ,117-H ) :   0.9373 
B(107-C ,118-H ) :   0.9307 B(108-C ,113-N ) :   0.8555 B(108-C ,119-H ) :   0.9343 
B(108-C ,120-H ) :   0.9507 B(109-C ,110-C ) :   0.8640 B(109-C ,121-H ) :   0.9375 
B(109-C ,122-H ) :   0.9306 B(110-C ,114-N ) :   0.8561 B(110-C ,123-H ) :   0.9344 
B(110-C ,124-H ) :   0.9505 B(111-C ,112-C ) :   0.8646 B(111-C ,125-H ) :   0.9373 
B(111-C ,126-H ) :   0.9305 B(112-C ,115-N ) :   0.8563 B(112-C ,127-H ) :   0.9503 
B(112-C ,128-H ) :   0.9350 B(113-N ,116-Mg) :   0.2011 B(113-N ,206-C ) :   2.0395 
B(113-N ,224-C ) :  -0.1584 B(114-N ,116-Mg) :   0.2013 B(114-N ,169-C ) :   2.0392 
B(114-N ,180-C ) :  -0.1589 B(115-N ,116-Mg) :   0.2005 B(115-N ,130-C ) :   2.0393 
B(115-N ,141-C ) :  -0.1587 B(116-Mg,142-N ) :   0.1885 B(116-Mg,181-N ) :   0.1884 
B(116-Mg,225-N ) :   0.1884 B(129-C ,147-C ) :   0.9414 B(129-C ,165-H ) :   0.8972 
B(130-C ,141-C ) :   0.9432 B(130-C ,166-H ) :   0.8965 B(131-C ,154-C ) :   0.9408 
B(131-C ,167-H ) :   0.8971 B(132-C ,133-C ) :   1.3645 B(132-C ,137-C ) :   1.3945 
B(132-C ,138-C ) :   0.7390 B(133-C ,134-C ) :   1.3936 B(133-C ,247-H ) :   0.9058 
B(134-C ,135-C ) :   1.3624 B(134-C ,144-C ) :   0.7406 B(135-C ,136-C ) :   1.3953 
B(135-C ,248-H ) :   0.9057 B(136-C ,137-C ) :   1.3607 B(136-C ,150-C ) :   0.7397 
B(137-C ,249-H ) :   0.9059 B(138-C ,139-C ) :   1.3163 B(138-C ,143-C ) :   1.2770 
B(139-C ,140-C ) :   1.3653 B(139-C ,156-H ) :   0.9473 B(140-C ,141-C ) :   1.3924 
B(140-C ,157-H ) :   0.9041 B(141-C ,142-N ) :   1.2799 B(142-N ,143-C ) :   1.4855 
B(143-C ,158-H ) :   0.9212 B(144-C ,145-C ) :   1.3165 B(144-C ,149-C ) :   1.2774 
B(145-C ,146-C ) :   1.3663 B(145-C ,159-H ) :   0.9467 B(146-C ,147-C ) :   1.3913 
B(146-C ,160-H ) :   0.9044 B(147-C ,148-N ) :   1.2797 B(148-N ,149-C ) :   1.4829 
B(149-C ,161-H ) :   0.9213 B(150-C ,151-C ) :   1.2758 B(150-C ,152-C ) :   1.3180 
B(151-C ,155-N ) :   1.4826 B(151-C ,162-H ) :   0.9216 B(152-C ,153-C ) :   1.3663 
B(152-C ,163-H ) :   0.9469 B(153-C ,154-C ) :   1.3920 B(153-C ,164-H ) :   0.9038 
B(154-C ,155-N ) :   1.2797 B(168-C ,186-C ) :   0.9424 B(168-C ,204-H ) :   0.8970 
B(169-C ,180-C ) :   0.9416 B(169-C ,259-H ) :   0.8970 B(170-C ,193-C ) :   0.9419 
B(170-C ,205-H ) :   0.8965 B(171-C ,172-C ) :   1.3947 B(171-C ,176-C ) :   1.3624 
B(171-C ,177-C ) :   0.7399 B(172-C ,173-C ) :   1.3631 B(172-C ,250-H ) :   0.9060 
B(173-C ,174-C ) :   1.3928 B(173-C ,183-C ) :   0.7399 B(174-C ,175-C ) :   1.3640 
B(174-C ,251-H ) :   0.9061 B(175-C ,176-C ) :   1.3947 B(175-C ,189-C ) :   0.7380 
B(176-C ,252-H ) :   0.9060 B(177-C ,178-C ) :   1.3177 B(177-C ,182-C ) :   1.2776 
B(178-C ,179-C ) :   1.3661 B(178-C ,195-H ) :   0.9470 B(179-C ,180-C ) :   1.3916 
B(179-C ,196-H ) :   0.9039 B(180-C ,181-N ) :   1.2797 B(181-N ,182-C ) :   1.4837 
B(182-C ,197-H ) :   0.9208 B(183-C ,184-C ) :   1.3150 B(183-C ,188-C ) :   1.2794 
B(184-C ,185-C ) :   1.3658 B(184-C ,198-H ) :   0.9473 B(185-C ,186-C ) :   1.3911 
B(185-C ,199-H ) :   0.9044 B(186-C ,187-N ) :   1.2795 B(187-N ,188-C ) :   1.4834 
B(188-C ,200-H ) :   0.9209 B(189-C ,190-C ) :   1.2789 B(189-C ,191-C ) :   1.3172 
B(190-C ,194-N ) :   1.4806 B(190-C ,201-H ) :   0.9207 B(191-C ,192-C ) :   1.3663 
B(191-C ,202-H ) :   0.9474 B(192-C ,193-C ) :   1.3917 B(192-C ,203-H ) :   0.9039 
B(193-C ,194-N ) :   1.2797 B(206-C ,224-C ) :   0.9442 B(206-C ,241-H ) :   0.8964 
B(207-C ,218-C ) :   0.9424 B(207-C ,257-H ) :   0.8970 B(208-C ,231-C ) :   0.9437 
B(208-C ,242-H ) :   0.8968 B(209-C ,210-C ) :   1.3932 B(209-C ,214-C ) :   1.3631 
B(209-C ,215-C ) :   0.7396 B(210-C ,211-C ) :   1.3637 B(210-C ,253-H ) :   0.9062 
B(211-C ,212-C ) :   1.3927 B(211-C ,221-C ) :   0.7392 B(212-C ,213-C ) :   1.3642 
B(212-C ,254-H ) :   0.9060 B(213-C ,214-C ) :   1.3943 B(213-C ,227-C ) :   0.7391 
B(214-C ,255-H ) :   0.9061 B(215-C ,216-C ) :   1.3160 B(215-C ,220-C ) :   1.2777 
B(216-C ,217-C ) :   1.3657 B(216-C ,233-H ) :   0.9473 B(217-C ,218-C ) :   1.3913 
B(217-C ,234-H ) :   0.9045 B(218-C ,219-N ) :   1.2801 B(219-N ,220-C ) :   1.4840 
B(220-C ,258-H ) :   0.9214 B(221-C ,222-C ) :   1.3163 B(221-C ,226-C ) :   1.2788 
B(222-C ,223-C ) :   1.3658 B(222-C ,235-H ) :   0.9470 B(223-C ,224-C ) :   1.3927 
B(223-C ,236-H ) :   0.9042 B(224-C ,225-N ) :   1.2793 B(225-N ,226-C ) :   1.4822 
B(226-C ,237-H ) :   0.9215 B(227-C ,228-C ) :   1.2771 B(227-C ,229-C ) :   1.3158 
B(228-C ,232-N ) :   1.4838 B(228-C ,238-H ) :   0.9213 B(229-C ,230-C ) :   1.3660 
B(229-C ,239-H ) :   0.9470 B(230-C ,231-C ) :   1.3920 B(230-C ,240-H ) :   0.9043 
B(231-C ,232-N ) :   1.2793 

-------
TIMINGS
-------

Total SCF time: 0 days 0 hours 37 min 36 sec 

Total time                  ....    2256.043 sec
Sum of individual times     ....    2139.344 sec  ( 94.8%)

Fock matrix formation       ....    1755.049 sec  ( 77.8%)
  Split-RI-J                ....     479.733 sec  ( 27.3% of F)
  XC integration            ....     494.810 sec  ( 28.2% of F)
    Basis function eval.    ....      62.603 sec  ( 12.7% of XC)
    Density eval.           ....     168.351 sec  ( 34.0% of XC)
    XC-Functional eval.     ....      21.875 sec  (  4.4% of XC)
    XC-Potential eval.      ....     116.827 sec  ( 23.6% of XC)
Diagonalization             ....      88.134 sec  (  3.9%)
Density matrix formation    ....       8.103 sec  (  0.4%)
Population analysis         ....       6.527 sec  (  0.3%)
Initial guess               ....      41.677 sec  (  1.8%)
Orbital Transformation      ....       0.000 sec  (  0.0%)
Orbital Orthonormalization  ....       0.000 sec  (  0.0%)
DIIS solution               ....      18.426 sec  (  0.8%)
SOSCF solution              ....      60.258 sec  (  2.7%)
Grid generation             ....     161.170 sec  (  7.1%)

Maximum memory used throughout the entire SCF-calculation: 4612.3 MB


-------------------------------------------------------------------------------
                          DFT DISPERSION CORRECTION                            
                                                                               
                                 DFTD4 V2.5                                    
-------------------------------------------------------------------------------
The R2SCAN3C composite method is recognized
Using three-body term ABC
Active option DFTDOPT                   ...         5   

Starting D4
-------------------------   ----------------
Dispersion correction           -0.196356309
-------------------------   ----------------

------------------   -----------------
gCP correction             0.179174676
------------------   -----------------

-------------------------   --------------------
FINAL SINGLE POINT ENERGY     -6970.996361578601
-------------------------   --------------------


                            ***************************************
                            *     ORCA property calculations      *
                            ***************************************

                                    ---------------------
                                    Active property flags
                                    ---------------------
   (+) Dipole Moment


------------------------------------------------------------------------------
                       ORCA ELECTRIC PROPERTIES CALCULATION
------------------------------------------------------------------------------

Dipole Moment Calculation                       ... on
Quadrupole Moment Calculation                   ... off
Polarizability Calculation                      ... off
GBWName                                         ... ORCA.gbw
Electron density                                ... ORCA.scfp
The origin for moment calculation is the CENTER OF MASS  = ( 3.441711,  3.393352  1.119191)

-------------
DIPOLE MOMENT
-------------
                                X             Y             Z
Electronic contribution:     -0.03997       0.03675       0.03255
Nuclear contribution   :      0.05497      -0.04720      -0.04082
                        -----------------------------------------
Total Dipole Moment    :      0.01500      -0.01045      -0.00827
                        -----------------------------------------
Magnitude (a.u.)       :      0.02006
Magnitude (Debye)      :      0.05100



--------------------
Rotational spectrum 
--------------------
 
Rotational constants in cm-1:     0.000231     0.000231     0.000231 
Rotational constants in MHz :     6.938894     6.936733     6.934979 

 Dipole components along the rotational axes: 
x,y,z [a.u.] :    -0.013142    -0.015098    -0.001369 
x,y,z [Debye]:    -0.033404    -0.038377    -0.003480 

 

Timings for individual modules:

Sum of individual times         ...     2277.166 sec (=  37.953 min)
GTO integral calculation        ...       19.334 sec (=   0.322 min)   0.8 %
SCF iterations                  ...     2257.832 sec (=  37.631 min)  99.2 %
                             ****ORCA TERMINATED NORMALLY****
TOTAL RUN TIME: 0 days 0 hours 38 minutes 5 seconds 319 msec
